<?xml version="1.0" encoding="UTF-8"?>

<!-- generated on 2025-09-21 10:19:12 by Eclipse SUMO GUI Version 1.22.0
<sumoConfiguration xmlns:xsi="http://www.w3.org/2001/XMLSchema-instance" xsi:noNamespaceSchemaLocation="http://sumo.dlr.de/xsd/sumoConfiguration.xsd">

    <input>
        <net-file value="D:\JUST\Thesis\Implementation\New2 ( with charging staton )\MOD1\Test1.net.xml"/>
        <route-files value="D:\JUST\Thesis\Implementation\New2 ( with charging staton )\MOD1\Test1.rou.xml"/>
        <additional-files value="D:\JUST\Thesis\Implementation\New2 ( with charging staton )\MOD1\Test1.add.xml"/>
    </input>

    <output>
        <emission-output value="D:\JUST\Thesis\Implementation\New2 ( with charging staton )\MOD1\emissions.xml"/>
        <battery-output value="D:\JUST\Thesis\Implementation\New2 ( with charging staton )\MOD1\battery.xml"/>
        <chargingstations-output value="D:\JUST\Thesis\Implementation\New2 ( with charging staton )\MOD1\chargingstations.xml"/>
        <fcd-output value="D:\JUST\Thesis\Implementation\New2 ( with charging staton )\MOD1\fcd.xml"/>
        <summary-output value="D:\JUST\Thesis\Implementation\New2 ( with charging staton )\MOD1\summary.xml"/>
        <tripinfo-output value="D:\JUST\Thesis\Implementation\New2 ( with charging staton )\MOD1\tripinfo.xml"/>
    </output>

    <time>
        <begin value="0"/>
        <end value="200"/>
        <step-length value="0.5"/>
    </time>

    <processing>
        <lateral-resolution value="0.8"/>
        <ignore-junction-blocker value="5"/>
        <ignore-route-errors value="true"/>
        <collision.check-junctions value="true"/>
    </processing>

    <report>
        <verbose value="true"/>
        <duration-log.statistics value="true"/>
    </report>

    <emissions>
        <device.emissions.probability value="1"/>
    </emissions>

    <battery>
        <device.battery.probability value="1"/>
    </battery>

</sumoConfiguration>
-->

<emission-export xmlns:xsi="http://www.w3.org/2001/XMLSchema-instance" xsi:noNamespaceSchemaLocation="http://sumo.dlr.de/xsd/emission_file.xsd">
    <timestep time="0.00">
        <vehicle id="easybike01" eclass="Energy/default" CO2="0.00" CO="0.00" HC="0.00" NOx="0.00" PMx="0.00" fuel="0.00" electricity="0.03" noise="55.94" route="main_arterial" type="easyBike" waiting="0.00" lane="E0_0" pos="2.30" speed="0.00" angle="102.22" x="-927.27" y="592.79"/>
    </timestep>
    <timestep time="0.50">
        <vehicle id="easybike01" eclass="Energy/default" CO2="0.00" CO="0.00" HC="0.00" NOx="0.00" PMx="0.00" fuel="0.00" electricity="0.22" noise="61.09" route="main_arterial" type="easyBike" waiting="0.00" lane="E0_0" pos="2.58" speed="0.56" angle="102.22" x="-926.98" y="592.73"/>
    </timestep>
    <timestep time="1.00">
        <vehicle id="easybike01" eclass="Energy/default" CO2="0.00" CO="0.00" HC="0.00" NOx="0.00" PMx="0.00" fuel="0.00" electricity="0.17" noise="57.53" route="main_arterial" type="easyBike" waiting="0.00" lane="E0_0" pos="2.94" speed="0.71" angle="102.22" x="-926.61" y="592.65"/>
    </timestep>
    <timestep time="1.50">
        <vehicle id="easybike01" eclass="Energy/default" CO2="0.00" CO="0.00" HC="0.00" NOx="0.00" PMx="0.00" fuel="0.00" electricity="0.35" noise="58.96" route="main_arterial" type="easyBike" waiting="0.00" lane="E0_0" pos="3.44" speed="1.01" angle="102.22" x="-926.09" y="592.54"/>
    </timestep>
    <timestep time="2.00">
        <vehicle id="easybike01" eclass="Energy/default" CO2="0.00" CO="0.00" HC="0.00" NOx="0.00" PMx="0.00" fuel="0.00" electricity="0.63" noise="60.13" route="main_arterial" type="easyBike" waiting="0.00" lane="E0_0" pos="4.15" speed="1.42" angle="102.22" x="-925.35" y="592.38"/>
        <vehicle id="easybike02" eclass="Energy/default" CO2="0.00" CO="0.00" HC="0.00" NOx="0.00" PMx="0.00" fuel="0.00" electricity="0.03" noise="55.94" route="via_n5_route" type="easyBike" waiting="0.00" lane="E4_0" pos="2.30" speed="0.00" angle="170.98" x="-932.43" y="587.99"/>
    </timestep>
    <timestep time="2.50">
        <vehicle id="easybike01" eclass="Energy/default" CO2="0.00" CO="0.00" HC="0.00" NOx="0.00" PMx="0.00" fuel="0.00" electricity="0.43" noise="58.33" route="main_arterial" type="easyBike" waiting="0.00" lane="E0_0" pos="4.97" speed="1.62" angle="102.22" x="-924.51" y="592.20"/>
        <vehicle id="easybike02" eclass="Energy/default" CO2="0.00" CO="0.00" HC="0.00" NOx="0.00" PMx="0.00" fuel="0.00" electricity="0.23" noise="61.22" route="via_n5_route" type="easyBike" waiting="0.00" lane="E4_0" pos="2.59" speed="0.58" angle="170.98" x="-932.38" y="587.70"/>
    </timestep>
    <timestep time="3.00">
        <vehicle id="easybike01" eclass="Energy/default" CO2="0.00" CO="0.00" HC="0.00" NOx="0.00" PMx="0.00" fuel="0.00" electricity="1.33" noise="61.94" route="main_arterial" type="easyBike" waiting="0.00" lane="E0_0" pos="6.07" speed="2.21" angle="102.22" x="-923.37" y="591.95"/>
        <vehicle id="easybike02" eclass="Energy/default" CO2="0.00" CO="0.00" HC="0.00" NOx="0.00" PMx="0.00" fuel="0.00" electricity="0.22" noise="58.09" route="via_n5_route" type="easyBike" waiting="0.00" lane="E4_0" pos="2.98" speed="0.79" angle="170.98" x="-932.32" y="587.30"/>
    </timestep>
    <timestep time="3.50">
        <vehicle id="easybike01" eclass="Energy/default" CO2="0.00" CO="0.00" HC="0.00" NOx="0.00" PMx="0.00" fuel="0.00" electricity="0.45" noise="57.97" route="main_arterial" type="easyBike" waiting="0.00" lane="E0_0" pos="7.23" speed="2.33" angle="102.22" x="-922.16" y="591.69"/>
        <vehicle id="easybike02" eclass="Energy/default" CO2="0.00" CO="0.00" HC="0.00" NOx="0.00" PMx="0.00" fuel="0.00" electricity="0.50" noise="59.89" route="via_n5_route" type="easyBike" waiting="0.00" lane="E4_0" pos="3.57" speed="1.18" angle="170.98" x="-932.22" y="586.69"/>
    </timestep>
    <timestep time="4.00">
        <vehicle id="easybike01" eclass="Energy/default" CO2="0.00" CO="0.00" HC="0.00" NOx="0.00" PMx="0.00" fuel="0.00" electricity="1.69" noise="61.91" route="main_arterial" type="easyBike" waiting="0.00" lane="E0_0" pos="8.67" speed="2.88" angle="102.22" x="-920.68" y="591.37"/>
        <vehicle id="easybike02" eclass="Energy/default" CO2="0.00" CO="0.00" HC="0.00" NOx="0.00" PMx="0.00" fuel="0.00" electricity="0.63" noise="59.73" route="via_n5_route" type="easyBike" waiting="0.00" lane="E4_0" pos="4.35" speed="1.55" angle="170.98" x="-932.10" y="585.91"/>
        <vehicle id="easybike03" eclass="Energy/default" CO2="0.00" CO="0.00" HC="0.00" NOx="0.00" PMx="0.00" fuel="0.00" electricity="0.03" noise="55.94" route="main_arterial" type="easyBike" waiting="0.00" lane="E0_0" pos="2.30" speed="0.00" angle="102.22" x="-927.27" y="592.79"/>
    </timestep>
    <timestep time="4.50">
        <vehicle id="easybike01" eclass="Energy/default" CO2="0.00" CO="0.00" HC="0.00" NOx="0.00" PMx="0.00" fuel="0.00" electricity="1.29" noise="60.24" route="main_arterial" type="easyBike" waiting="0.00" lane="E0_0" pos="10.28" speed="3.22" angle="102.22" x="-919.01" y="591.01"/>
        <vehicle id="easybike02" eclass="Energy/default" CO2="0.00" CO="0.00" HC="0.00" NOx="0.00" PMx="0.00" fuel="0.00" electricity="0.86" noise="60.16" route="via_n5_route" type="easyBike" waiting="0.00" lane="E4_0" pos="5.32" speed="1.94" angle="170.98" x="-931.94" y="584.92"/>
        <vehicle id="easybike03" eclass="Energy/default" CO2="0.00" CO="0.00" HC="0.00" NOx="0.00" PMx="0.00" fuel="0.00" electricity="0.15" noise="59.95" route="main_arterial" type="easyBike" waiting="0.00" lane="E0_0" pos="2.52" speed="0.44" angle="102.22" x="-927.04" y="592.75"/>
    </timestep>
    <timestep time="5.00">
        <vehicle id="easybike01" eclass="Energy/default" CO2="0.00" CO="0.00" HC="0.00" NOx="0.00" PMx="0.00" fuel="0.00" electricity="1.84" noise="61.35" route="main_arterial" type="easyBike" waiting="0.00" lane="E0_0" pos="12.11" speed="3.66" angle="102.22" x="-917.12" y="590.60"/>
        <vehicle id="easybike02" eclass="Energy/default" CO2="0.00" CO="0.00" HC="0.00" NOx="0.00" PMx="0.00" fuel="0.00" electricity="0.73" noise="59.17" route="via_n5_route" type="easyBike" waiting="0.00" lane="E4_0" pos="6.42" speed="2.21" angle="170.98" x="-931.76" y="583.80"/>
        <vehicle id="easybike03" eclass="Energy/default" CO2="0.00" CO="0.00" HC="0.00" NOx="0.00" PMx="0.00" fuel="0.00" electricity="0.35" noise="59.86" route="main_arterial" type="easyBike" waiting="0.00" lane="E0_0" pos="2.94" speed="0.85" angle="102.22" x="-926.61" y="592.65"/>
    </timestep>
    <timestep time="5.50">
        <vehicle id="easybike01" eclass="Energy/default" CO2="0.00" CO="0.00" HC="0.00" NOx="0.00" PMx="0.00" fuel="0.00" electricity="0.91" noise="59.10" route="main_arterial" type="easyBike" waiting="0.00" lane="E0_0" pos="14.03" speed="3.83" angle="102.22" x="-915.14" y="590.17"/>
        <vehicle id="easybike02" eclass="Energy/default" CO2="0.00" CO="0.00" HC="0.00" NOx="0.00" PMx="0.00" fuel="0.00" electricity="1.39" noise="61.17" route="via_n5_route" type="easyBike" waiting="0.00" lane="E4_0" pos="7.76" speed="2.68" angle="170.98" x="-931.55" y="582.43"/>
        <vehicle id="easybike03" eclass="Energy/default" CO2="0.00" CO="0.00" HC="0.00" NOx="0.00" PMx="0.00" fuel="0.00" electricity="0.81" noise="61.67" route="main_arterial" type="easyBike" waiting="0.00" lane="E0_0" pos="3.66" speed="1.44" angle="102.22" x="-925.86" y="592.49"/>
    </timestep>
    <timestep time="6.00">
        <vehicle id="easybike01" eclass="Energy/default" CO2="0.00" CO="0.00" HC="0.00" NOx="0.00" PMx="0.00" fuel="0.00" electricity="1.84" noise="61.01" route="main_arterial" type="easyBike" waiting="0.00" lane="E0_0" pos="16.13" speed="4.20" angle="102.22" x="-912.96" y="589.70"/>
        <vehicle id="easybike02" eclass="Energy/default" CO2="0.00" CO="0.00" HC="0.00" NOx="0.00" PMx="0.00" fuel="0.00" electricity="0.65" noise="58.53" route="via_n5_route" type="easyBike" waiting="0.00" lane="E4_0" pos="9.18" speed="2.84" angle="170.98" x="-931.32" y="580.99"/>
        <vehicle id="easybike03" eclass="Energy/default" CO2="0.00" CO="0.00" HC="0.00" NOx="0.00" PMx="0.00" fuel="0.00" electricity="0.75" noise="59.85" route="main_arterial" type="easyBike" waiting="0.00" lane="E0_0" pos="4.56" speed="1.80" angle="102.22" x="-924.93" y="592.29"/>
        <vehicle id="easybike04" eclass="Energy/default" CO2="0.00" CO="0.00" HC="0.00" NOx="0.00" PMx="0.00" fuel="0.00" electricity="0.03" noise="55.94" route="via_n5_route" type="easyBike" waiting="0.00" lane="E4_0" pos="2.30" speed="0.00" angle="170.98" x="-932.43" y="587.99"/>
    </timestep>
    <timestep time="6.50">
        <vehicle id="easybike01" eclass="Energy/default" CO2="0.00" CO="0.00" HC="0.00" NOx="0.00" PMx="0.00" fuel="0.00" electricity="3.07" noise="63.07" route="main_arterial" type="easyBike" waiting="0.00" lane="E0_0" pos="18.52" speed="4.79" angle="102.22" x="-910.48" y="589.16"/>
        <vehicle id="easybike02" eclass="Energy/default" CO2="0.00" CO="0.00" HC="0.00" NOx="0.00" PMx="0.00" fuel="0.00" electricity="1.76" noise="61.47" route="via_n5_route" type="easyBike" waiting="0.00" lane="E4_0" pos="10.84" speed="3.32" angle="170.98" x="-931.05" y="579.30"/>
        <vehicle id="easybike03" eclass="Energy/default" CO2="0.00" CO="0.00" HC="0.00" NOx="0.00" PMx="0.00" fuel="0.00" electricity="0.50" noise="58.33" route="main_arterial" type="easyBike" waiting="0.00" lane="E0_0" pos="5.55" speed="1.98" angle="102.22" x="-923.91" y="592.07"/>
        <vehicle id="easybike04" eclass="Energy/default" CO2="0.00" CO="0.00" HC="0.00" NOx="0.00" PMx="0.00" fuel="0.00" electricity="0.14" noise="59.74" route="via_n5_route" type="easyBike" waiting="0.00" lane="E4_0" pos="2.51" speed="0.41" angle="170.98" x="-932.39" y="587.78"/>
    </timestep>
    <timestep time="7.00">
        <vehicle id="easybike01" eclass="Energy/default" CO2="0.00" CO="0.00" HC="0.00" NOx="0.00" PMx="0.00" fuel="0.00" electricity="3.39" noise="63.23" route="main_arterial" type="easyBike" waiting="0.00" lane="E0_0" pos="21.20" speed="5.36" angle="102.22" x="-907.71" y="588.56"/>
        <vehicle id="easybike02" eclass="Energy/default" CO2="0.00" CO="0.00" HC="0.00" NOx="0.00" PMx="0.00" fuel="0.00" electricity="2.39" noise="62.49" route="via_n5_route" type="easyBike" waiting="0.00" lane="E4_0" pos="12.78" speed="3.88" angle="170.98" x="-930.74" y="577.32"/>
        <vehicle id="easybike03" eclass="Energy/default" CO2="0.00" CO="0.00" HC="0.00" NOx="0.00" PMx="0.00" fuel="0.00" electricity="1.02" noise="60.19" route="main_arterial" type="easyBike" waiting="0.00" lane="E0_0" pos="6.73" speed="2.36" angle="102.22" x="-922.69" y="591.80"/>
        <vehicle id="easybike04" eclass="Energy/default" CO2="0.00" CO="0.00" HC="0.00" NOx="0.00" PMx="0.00" fuel="0.00" electricity="0.37" noise="60.14" route="via_n5_route" type="easyBike" waiting="0.00" lane="E4_0" pos="2.93" speed="0.85" angle="170.98" x="-932.33" y="587.34"/>
    </timestep>
    <timestep time="7.50">
        <vehicle id="easybike01" eclass="Energy/default" CO2="0.00" CO="0.00" HC="0.00" NOx="0.00" PMx="0.00" fuel="0.00" electricity="3.21" noise="62.72" route="main_arterial" type="easyBike" waiting="0.00" lane="E0_0" pos="24.12" speed="5.84" angle="102.22" x="-904.69" y="587.91"/>
        <vehicle id="easybike02" eclass="Energy/default" CO2="0.00" CO="0.00" HC="0.00" NOx="0.00" PMx="0.00" fuel="0.00" electricity="2.82" noise="62.86" route="via_n5_route" type="easyBike" waiting="0.00" lane="E4_0" pos="15.01" speed="4.46" angle="170.98" x="-930.38" y="575.06"/>
        <vehicle id="easybike03" eclass="Energy/default" CO2="0.00" CO="0.00" HC="0.00" NOx="0.00" PMx="0.00" fuel="0.00" electricity="1.71" noise="61.91" route="main_arterial" type="easyBike" waiting="0.00" lane="E0_0" pos="8.18" speed="2.91" angle="102.22" x="-921.18" y="591.48"/>
        <vehicle id="easybike04" eclass="Energy/default" CO2="0.00" CO="0.00" HC="0.00" NOx="0.00" PMx="0.00" fuel="0.00" electricity="0.33" noise="58.49" route="via_n5_route" type="easyBike" waiting="0.00" lane="E4_0" pos="3.48" speed="1.10" angle="170.98" x="-932.24" y="586.79"/>
    </timestep>
    <timestep time="8.00">
        <vehicle id="easybike01" eclass="Energy/default" CO2="0.00" CO="0.00" HC="0.00" NOx="0.00" PMx="0.00" fuel="0.00" electricity="3.79" noise="63.37" route="main_arterial" type="easyBike" waiting="0.00" lane="E0_0" pos="27.30" speed="6.36" angle="102.22" x="-901.40" y="587.19"/>
        <vehicle id="easybike02" eclass="Energy/default" CO2="0.00" CO="0.00" HC="0.00" NOx="0.00" PMx="0.00" fuel="0.00" electricity="2.57" noise="62.07" route="via_n5_route" type="easyBike" waiting="0.00" lane="E4_0" pos="17.47" speed="4.92" angle="170.98" x="-929.98" y="572.56"/>
        <vehicle id="easybike03" eclass="Energy/default" CO2="0.00" CO="0.00" HC="0.00" NOx="0.00" PMx="0.00" fuel="0.00" electricity="1.51" noise="60.78" route="main_arterial" type="easyBike" waiting="0.00" lane="E0_0" pos="9.83" speed="3.30" angle="102.22" x="-919.47" y="591.11"/>
        <vehicle id="easybike04" eclass="Energy/default" CO2="0.00" CO="0.00" HC="0.00" NOx="0.00" PMx="0.00" fuel="0.00" electricity="0.55" noise="59.46" route="via_n5_route" type="easyBike" waiting="0.00" lane="E4_0" pos="4.20" speed="1.43" angle="170.98" x="-932.12" y="586.06"/>
    </timestep>
    <timestep time="8.50">
        <vehicle id="easybike01" eclass="Energy/default" CO2="0.00" CO="0.00" HC="0.00" NOx="0.00" PMx="0.00" fuel="0.00" electricity="1.87" noise="60.97" route="main_arterial" type="easyBike" waiting="0.00" lane="E0_0" pos="30.59" speed="6.58" angle="102.22" x="-898.00" y="586.46"/>
        <vehicle id="easybike02" eclass="Energy/default" CO2="0.00" CO="0.00" HC="0.00" NOx="0.00" PMx="0.00" fuel="0.00" electricity="1.72" noise="60.57" route="via_n5_route" type="easyBike" waiting="0.00" lane="E4_0" pos="20.05" speed="5.18" angle="170.98" x="-929.56" y="569.92"/>
        <vehicle id="easybike03" eclass="Energy/default" CO2="0.00" CO="0.00" HC="0.00" NOx="0.00" PMx="0.00" fuel="0.00" electricity="1.55" noise="60.63" route="main_arterial" type="easyBike" waiting="0.00" lane="E0_0" pos="11.67" speed="3.66" angle="102.22" x="-917.58" y="590.70"/>
        <vehicle id="easybike04" eclass="Energy/default" CO2="0.00" CO="0.00" HC="0.00" NOx="0.00" PMx="0.00" fuel="0.00" electricity="0.44" noise="58.36" route="via_n5_route" type="easyBike" waiting="0.00" lane="E4_0" pos="5.02" speed="1.64" angle="170.98" x="-931.99" y="585.22"/>
        <vehicle id="easybike05" eclass="Energy/default" CO2="0.00" CO="0.00" HC="0.00" NOx="0.00" PMx="0.00" fuel="0.00" electricity="0.03" noise="55.94" route="southern_route" type="easyBike" waiting="0.00" lane="E4_0" pos="2.30" speed="0.00" angle="170.98" x="-932.43" y="587.99"/>
    </timestep>
    <timestep time="9.00">
        <vehicle id="easybike01" eclass="Energy/default" CO2="0.00" CO="0.00" HC="0.00" NOx="0.00" PMx="0.00" fuel="0.00" electricity="1.38" noise="60.46" route="main_arterial" type="easyBike" waiting="0.00" lane="E0_0" pos="33.95" speed="6.71" angle="102.22" x="-894.52" y="585.70"/>
        <vehicle id="easybike02" eclass="Energy/default" CO2="0.00" CO="0.00" HC="0.00" NOx="0.00" PMx="0.00" fuel="0.00" electricity="1.90" noise="60.85" route="via_n5_route" type="easyBike" waiting="0.00" lane="E4_0" pos="22.78" speed="5.46" angle="170.98" x="-929.12" y="567.14"/>
        <vehicle id="easybike03" eclass="Energy/default" CO2="0.00" CO="0.00" HC="0.00" NOx="0.00" PMx="0.00" fuel="0.00" electricity="1.14" noise="59.59" route="main_arterial" type="easyBike" waiting="0.00" lane="E0_0" pos="13.61" speed="3.89" angle="102.22" x="-915.57" y="590.26"/>
        <vehicle id="easybike04" eclass="Energy/default" CO2="0.00" CO="0.00" HC="0.00" NOx="0.00" PMx="0.00" fuel="0.00" electricity="0.57" noise="58.76" route="via_n5_route" type="easyBike" waiting="0.00" lane="E4_0" pos="5.95" speed="1.87" angle="170.98" x="-931.84" y="584.27"/>
        <vehicle id="easybike05" eclass="Energy/default" CO2="0.00" CO="0.00" HC="0.00" NOx="0.00" PMx="0.00" fuel="0.00" electricity="0.03" noise="56.11" route="southern_route" type="easyBike" waiting="0.50" lane="E4_0" pos="2.31" speed="0.02" angle="170.98" x="-932.43" y="587.98"/>
    </timestep>
    <timestep time="9.50">
        <vehicle id="easybike01" eclass="Energy/default" CO2="0.00" CO="0.00" HC="0.00" NOx="0.00" PMx="0.00" fuel="0.00" electricity="2.03" noise="61.24" route="main_arterial" type="easyBike" waiting="0.00" lane="E0_0" pos="37.41" speed="6.93" angle="102.22" x="-890.94" y="584.93"/>
        <vehicle id="easybike02" eclass="Energy/default" CO2="0.00" CO="0.00" HC="0.00" NOx="0.00" PMx="0.00" fuel="0.00" electricity="3.05" noise="62.48" route="via_n5_route" type="easyBike" waiting="0.00" lane="E4_0" pos="25.73" speed="5.90" angle="170.98" x="-928.64" y="564.14"/>
        <vehicle id="easybike03" eclass="Energy/default" CO2="0.00" CO="0.00" HC="0.00" NOx="0.00" PMx="0.00" fuel="0.00" electricity="1.07" noise="59.43" route="main_arterial" type="easyBike" waiting="0.00" lane="E0_0" pos="15.65" speed="4.08" angle="102.22" x="-913.46" y="589.80"/>
        <vehicle id="easybike04" eclass="Energy/default" CO2="0.00" CO="0.00" HC="0.00" NOx="0.00" PMx="0.00" fuel="0.00" electricity="1.26" noise="61.23" route="via_n5_route" type="easyBike" waiting="0.00" lane="E4_0" pos="7.14" speed="2.37" angle="170.98" x="-931.65" y="583.07"/>
        <vehicle id="easybike05" eclass="Energy/default" CO2="0.00" CO="0.00" HC="0.00" NOx="0.00" PMx="0.00" fuel="0.00" electricity="0.14" noise="59.63" route="southern_route" type="easyBike" waiting="0.00" lane="E4_0" pos="2.52" speed="0.42" angle="170.98" x="-932.39" y="587.77"/>
    </timestep>
    <timestep time="10.00">
        <vehicle id="easybike01" eclass="Energy/default" CO2="0.00" CO="0.00" HC="0.00" NOx="0.00" PMx="0.00" fuel="0.00" electricity="5.05" noise="64.55" route="main_arterial" type="easyBike" waiting="0.00" lane="E0_0" pos="41.18" speed="7.53" angle="102.22" x="-887.04" y="584.08"/>
        <vehicle id="easybike02" eclass="Energy/default" CO2="0.00" CO="0.00" HC="0.00" NOx="0.00" PMx="0.00" fuel="0.00" electricity="2.91" noise="62.22" route="via_n5_route" type="easyBike" waiting="0.00" lane="E4_0" pos="28.88" speed="6.29" angle="170.98" x="-928.13" y="560.94"/>
        <vehicle id="easybike03" eclass="Energy/default" CO2="0.00" CO="0.00" HC="0.00" NOx="0.00" PMx="0.00" fuel="0.00" electricity="2.78" noise="62.65" route="main_arterial" type="easyBike" waiting="0.00" lane="E0_0" pos="17.96" speed="4.62" angle="102.22" x="-911.07" y="589.29"/>
        <vehicle id="easybike04" eclass="Energy/default" CO2="0.00" CO="0.00" HC="0.00" NOx="0.00" PMx="0.00" fuel="0.00" electricity="1.54" noise="61.42" route="via_n5_route" type="easyBike" waiting="0.00" lane="E4_0" pos="8.57" speed="2.86" angle="170.98" x="-931.42" y="581.61"/>
        <vehicle id="easybike05" eclass="Energy/default" CO2="0.00" CO="0.00" HC="0.00" NOx="0.00" PMx="0.00" fuel="0.00" electricity="0.16" noise="57.87" route="southern_route" type="easyBike" waiting="0.00" lane="E4_0" pos="2.83" speed="0.61" angle="170.98" x="-932.34" y="587.45"/>
        <vehicle id="easybike06" eclass="Energy/default" CO2="0.00" CO="0.00" HC="0.00" NOx="0.00" PMx="0.00" fuel="0.00" electricity="0.03" noise="55.94" route="main_arterial" type="easyBike" waiting="0.00" lane="E0_0" pos="2.30" speed="0.00" angle="102.22" x="-927.27" y="592.79"/>
    </timestep>
    <timestep time="10.50">
        <vehicle id="easybike01" eclass="Energy/default" CO2="0.00" CO="0.00" HC="0.00" NOx="0.00" PMx="0.00" fuel="0.00" electricity="2.00" noise="61.46" route="main_arterial" type="easyBike" waiting="0.00" lane="E0_0" pos="45.04" speed="7.72" angle="102.22" x="-883.05" y="583.22"/>
        <vehicle id="easybike02" eclass="Energy/default" CO2="0.00" CO="0.00" HC="0.00" NOx="0.00" PMx="0.00" fuel="0.00" electricity="4.41" noise="64.00" route="via_n5_route" type="easyBike" waiting="0.00" lane="E4_0" pos="32.31" speed="6.86" angle="170.98" x="-927.58" y="557.45"/>
        <vehicle id="easybike03" eclass="Energy/default" CO2="0.00" CO="0.00" HC="0.00" NOx="0.00" PMx="0.00" fuel="0.00" electricity="3.01" noise="62.71" route="main_arterial" type="easyBike" waiting="0.00" lane="E0_0" pos="20.53" speed="5.14" angle="102.22" x="-908.40" y="588.71"/>
        <vehicle id="easybike04" eclass="Energy/default" CO2="0.00" CO="0.00" HC="0.00" NOx="0.00" PMx="0.00" fuel="0.00" electricity="2.22" noise="62.61" route="via_n5_route" type="easyBike" waiting="0.00" lane="E4_0" pos="10.30" speed="3.46" angle="170.98" x="-931.14" y="579.85"/>
        <vehicle id="easybike05" eclass="Energy/default" CO2="0.00" CO="0.00" HC="0.00" NOx="0.00" PMx="0.00" fuel="0.00" electricity="0.61" noise="61.25" route="southern_route" type="easyBike" waiting="0.00" lane="E4_0" pos="3.41" speed="1.17" angle="170.98" x="-932.25" y="586.86"/>
        <vehicle id="easybike06" eclass="Energy/default" CO2="0.00" CO="0.00" HC="0.00" NOx="0.00" PMx="0.00" fuel="0.00" electricity="0.14" noise="59.71" route="main_arterial" type="easyBike" waiting="0.00" lane="E0_0" pos="2.51" speed="0.41" angle="102.22" x="-927.06" y="592.75"/>
    </timestep>
    <timestep time="11.00">
        <vehicle id="easybike01" eclass="Energy/default" CO2="0.00" CO="0.00" HC="0.00" NOx="0.00" PMx="0.00" fuel="0.00" electricity="4.46" noise="63.87" route="main_arterial" type="easyBike" waiting="0.00" lane="E0_0" pos="49.13" speed="8.18" angle="102.22" x="-878.82" y="582.30"/>
        <vehicle id="easybike02" eclass="Energy/default" CO2="0.00" CO="0.00" HC="0.00" NOx="0.00" PMx="0.00" fuel="0.00" electricity="3.41" noise="62.79" route="via_n5_route" type="easyBike" waiting="0.00" lane="E4_0" pos="35.94" speed="7.26" angle="170.98" x="-926.99" y="553.75"/>
        <vehicle id="easybike03" eclass="Energy/default" CO2="0.00" CO="0.00" HC="0.00" NOx="0.00" PMx="0.00" fuel="0.00" electricity="2.05" noise="61.08" route="main_arterial" type="easyBike" waiting="0.00" lane="E0_0" pos="23.26" speed="5.45" angle="102.22" x="-905.58" y="588.10"/>
        <vehicle id="easybike04" eclass="Energy/default" CO2="0.00" CO="0.00" HC="0.00" NOx="0.00" PMx="0.00" fuel="0.00" electricity="1.77" noise="61.04" route="via_n5_route" type="easyBike" waiting="0.00" lane="E4_0" pos="12.23" speed="3.86" angle="170.98" x="-930.82" y="577.89"/>
        <vehicle id="easybike05" eclass="Energy/default" CO2="0.00" CO="0.00" HC="0.00" NOx="0.00" PMx="0.00" fuel="0.00" electricity="0.97" noise="61.53" route="southern_route" type="easyBike" waiting="0.00" lane="E4_0" pos="4.27" speed="1.72" angle="170.98" x="-932.11" y="585.98"/>
        <vehicle id="easybike06" eclass="Energy/default" CO2="0.00" CO="0.00" HC="0.00" NOx="0.00" PMx="0.00" fuel="0.00" electricity="0.49" noise="61.22" route="main_arterial" type="easyBike" waiting="0.00" lane="E0_0" pos="2.99" speed="0.97" angle="102.22" x="-926.56" y="592.64"/>
    </timestep>
    <timestep time="11.50">
        <vehicle id="easybike01" eclass="Energy/default" CO2="0.00" CO="0.00" HC="0.00" NOx="0.00" PMx="0.00" fuel="0.00" electricity="2.82" noise="62.44" route="main_arterial" type="easyBike" waiting="0.00" lane="E0_0" pos="53.35" speed="8.44" angle="102.22" x="-874.45" y="581.36"/>
        <vehicle id="easybike02" eclass="Energy/default" CO2="0.00" CO="0.00" HC="0.00" NOx="0.00" PMx="0.00" fuel="0.00" electricity="2.15" noise="61.52" route="via_n5_route" type="easyBike" waiting="0.00" lane="E4_0" pos="39.68" speed="7.47" angle="170.98" x="-926.39" y="549.95"/>
        <vehicle id="easybike03" eclass="Energy/default" CO2="0.00" CO="0.00" HC="0.00" NOx="0.00" PMx="0.00" fuel="0.00" electricity="1.95" noise="60.94" route="main_arterial" type="easyBike" waiting="0.00" lane="E0_0" pos="26.12" speed="5.72" angle="102.22" x="-902.62" y="587.46"/>
        <vehicle id="easybike04" eclass="Energy/default" CO2="0.00" CO="0.00" HC="0.00" NOx="0.00" PMx="0.00" fuel="0.00" electricity="1.19" noise="59.69" route="via_n5_route" type="easyBike" waiting="0.00" lane="E4_0" pos="14.27" speed="4.08" angle="170.98" x="-930.49" y="575.81"/>
        <vehicle id="easybike05" eclass="Energy/default" CO2="0.00" CO="0.00" HC="0.00" NOx="0.00" PMx="0.00" fuel="0.00" electricity="0.64" noise="58.99" route="southern_route" type="easyBike" waiting="0.00" lane="E4_0" pos="5.26" speed="1.98" angle="170.98" x="-931.95" y="584.98"/>
        <vehicle id="easybike06" eclass="Energy/default" CO2="0.00" CO="0.00" HC="0.00" NOx="0.00" PMx="0.00" fuel="0.00" electricity="0.24" noise="57.63" route="main_arterial" type="easyBike" waiting="0.00" lane="E0_0" pos="3.55" speed="1.11" angle="102.22" x="-925.98" y="592.52"/>
    </timestep>
    <timestep time="12.00">
        <vehicle id="easybike01" eclass="Energy/default" CO2="0.00" CO="0.00" HC="0.00" NOx="0.00" PMx="0.00" fuel="0.00" electricity="2.27" noise="62.06" route="main_arterial" type="easyBike" waiting="0.00" lane="E0_0" pos="57.67" speed="8.63" angle="102.22" x="-869.98" y="580.39"/>
        <vehicle id="easybike02" eclass="Energy/default" CO2="0.00" CO="0.00" HC="0.00" NOx="0.00" PMx="0.00" fuel="0.00" electricity="4.62" noise="64.03" route="via_n5_route" type="easyBike" waiting="0.00" lane="E4_0" pos="43.67" speed="7.98" angle="170.98" x="-925.75" y="545.89"/>
        <vehicle id="easybike03" eclass="Energy/default" CO2="0.00" CO="0.00" HC="0.00" NOx="0.00" PMx="0.00" fuel="0.00" electricity="3.49" noise="63.01" route="main_arterial" type="easyBike" waiting="0.00" lane="E0_0" pos="29.23" speed="6.21" angle="102.22" x="-899.41" y="586.76"/>
        <vehicle id="easybike04" eclass="Energy/default" CO2="0.00" CO="0.00" HC="0.00" NOx="0.00" PMx="0.00" fuel="0.00" electricity="2.45" noise="62.04" route="via_n5_route" type="easyBike" waiting="0.00" lane="E4_0" pos="16.55" speed="4.56" angle="170.98" x="-930.13" y="573.49"/>
        <vehicle id="easybike05" eclass="Energy/default" CO2="0.00" CO="0.00" HC="0.00" NOx="0.00" PMx="0.00" fuel="0.00" electricity="0.90" noise="59.78" route="southern_route" type="easyBike" waiting="0.00" lane="E4_0" pos="6.42" speed="2.31" angle="170.98" x="-931.76" y="583.80"/>
        <vehicle id="easybike06" eclass="Energy/default" CO2="0.00" CO="0.00" HC="0.00" NOx="0.00" PMx="0.00" fuel="0.00" electricity="0.69" noise="60.18" route="main_arterial" type="easyBike" waiting="0.00" lane="E0_0" pos="4.31" speed="1.53" angle="102.22" x="-925.19" y="592.34"/>
        <vehicle id="easybike07" eclass="Energy/default" CO2="0.00" CO="0.00" HC="0.00" NOx="0.00" PMx="0.00" fuel="0.00" electricity="0.03" noise="55.94" route="via_n5_route" type="easyBike" waiting="0.00" lane="E4_0" pos="2.30" speed="0.00" angle="170.98" x="-932.43" y="587.99"/>
    </timestep>
    <timestep time="12.50">
        <vehicle id="easybike01" eclass="Energy/default" CO2="0.00" CO="0.00" HC="0.00" NOx="0.00" PMx="0.00" fuel="0.00" electricity="5.69" noise="64.97" route="main_arterial" type="easyBike" waiting="0.00" lane="E0_0" pos="62.25" speed="9.17" angle="102.22" x="-865.24" y="579.36"/>
        <vehicle id="easybike02" eclass="Energy/default" CO2="0.00" CO="0.00" HC="0.00" NOx="0.00" PMx="0.00" fuel="0.00" electricity="2.08" noise="61.70" route="via_n5_route" type="easyBike" waiting="0.00" lane="E4_0" pos="47.74" speed="8.16" angle="170.98" x="-925.09" y="541.74"/>
        <vehicle id="easybike03" eclass="Energy/default" CO2="0.00" CO="0.00" HC="0.00" NOx="0.00" PMx="0.00" fuel="0.00" electricity="3.14" noise="62.49" route="main_arterial" type="easyBike" waiting="0.00" lane="E0_0" pos="32.54" speed="6.62" angle="102.22" x="-895.99" y="586.02"/>
        <vehicle id="easybike04" eclass="Energy/default" CO2="0.00" CO="0.00" HC="0.00" NOx="0.00" PMx="0.00" fuel="0.00" electricity="0.87" noise="59.14" route="via_n5_route" type="easyBike" waiting="0.00" lane="E4_0" pos="18.89" speed="4.68" angle="170.98" x="-929.75" y="571.11"/>