<?xml version="1.0" encoding="UTF-8"?>

<!-- generated on 2025-09-20 22:11:01 by Eclipse SUMO GUI Version 1.22.0
<sumoConfiguration xmlns:xsi="http://www.w3.org/2001/XMLSchema-instance" xsi:noNamespaceSchemaLocation="http://sumo.dlr.de/xsd/sumoConfiguration.xsd">

    <input>
        <net-file value="D:\JUST\Thesis\Implementation\New2 ( with charging staton )\MOD0\Test1.net.xml"/>
        <route-files value="D:\JUST\Thesis\Implementation\New2 ( with charging staton )\MOD0\Test1.rou.xml"/>
        <additional-files value="D:\JUST\Thesis\Implementation\New2 ( with charging staton )\MOD0\Test1.add.xml"/>
    </input>

    <output>
        <emission-output value="D:\JUST\Thesis\Implementation\New2 ( with charging staton )\MOD0\emissions.xml"/>
        <battery-output value="D:\JUST\Thesis\Implementation\New2 ( with charging staton )\MOD0\battery.xml"/>
        <chargingstations-output value="D:\JUST\Thesis\Implementation\New2 ( with charging staton )\MOD0\chargingstations.xml"/>
        <fcd-output value="D:\JUST\Thesis\Implementation\New2 ( with charging staton )\MOD0\fcd.xml"/>
        <summary-output value="D:\JUST\Thesis\Implementation\New2 ( with charging staton )\MOD0\summary.xml"/>
        <tripinfo-output value="D:\JUST\Thesis\Implementation\New2 ( with charging staton )\MOD0\tripinfo.xml"/>
    </output>

    <time>
        <begin value="0"/>
        <end value="100"/>
        <step-length value="0.5"/>
    </time>

    <processing>
        <lateral-resolution value="0.8"/>
        <ignore-junction-blocker value="5"/>
        <ignore-route-errors value="true"/>
        <collision.check-junctions value="true"/>
    </processing>

    <report>
        <verbose value="true"/>
        <duration-log.statistics value="true"/>
    </report>

    <emissions>
        <device.emissions.probability value="1"/>
    </emissions>

    <battery>
        <device.battery.probability value="1"/>
    </battery>

</sumoConfiguration>
-->

<emission-export xmlns:xsi="http://www.w3.org/2001/XMLSchema-instance" xsi:noNamespaceSchemaLocation="http://sumo.dlr.de/xsd/emission_file.xsd">
    <timestep time="0.00">
        <vehicle id="ebike01" eclass="Energy/default" CO2="0.00" CO="0.00" HC="0.00" NOx="0.00" PMx="0.00" fuel="0.00" electricity="0.03" noise="55.94" route="main_arterial" type="eBike" waiting="0.00" lane="E0_0" pos="2.10" speed="0.00" angle="99.48" x="-68.66" y="27.91"/>
    </timestep>
    <timestep time="0.50">
        <vehicle id="ebike01" eclass="Energy/default" CO2="0.00" CO="0.00" HC="0.00" NOx="0.00" PMx="0.00" fuel="0.00" electricity="0.22" noise="61.09" route="main_arterial" type="eBike" waiting="0.00" lane="E0_0" pos="2.38" speed="0.56" angle="99.48" x="-68.38" y="27.87"/>
    </timestep>
    <timestep time="1.00">
        <vehicle id="ebike01" eclass="Energy/default" CO2="0.00" CO="0.00" HC="0.00" NOx="0.00" PMx="0.00" fuel="0.00" electricity="0.17" noise="57.53" route="main_arterial" type="eBike" waiting="0.00" lane="E0_0" pos="2.74" speed="0.71" angle="99.48" x="-68.03" y="27.81"/>
    </timestep>
    <timestep time="1.50">
        <vehicle id="ebike01" eclass="Energy/default" CO2="0.00" CO="0.00" HC="0.00" NOx="0.00" PMx="0.00" fuel="0.00" electricity="0.35" noise="58.96" route="main_arterial" type="eBike" waiting="0.00" lane="E0_0" pos="3.24" speed="1.01" angle="99.48" x="-67.53" y="27.73"/>
    </timestep>
    <timestep time="2.00">
        <vehicle id="ebike01" eclass="Energy/default" CO2="0.00" CO="0.00" HC="0.00" NOx="0.00" PMx="0.00" fuel="0.00" electricity="0.63" noise="60.13" route="main_arterial" type="eBike" waiting="0.00" lane="E0_0" pos="3.95" speed="1.42" angle="99.48" x="-66.83" y="27.61"/>
        <vehicle id="ebike02" eclass="Energy/default" CO2="0.00" CO="0.00" HC="0.00" NOx="0.00" PMx="0.00" fuel="0.00" electricity="0.03" noise="55.94" route="via_n5_route" type="eBike" waiting="0.00" lane="E4_0" pos="2.10" speed="0.00" angle="209.97" x="-75.65" y="24.61"/>
    </timestep>
    <timestep time="2.50">
        <vehicle id="ebike01" eclass="Energy/default" CO2="0.00" CO="0.00" HC="0.00" NOx="0.00" PMx="0.00" fuel="0.00" electricity="0.43" noise="58.33" route="main_arterial" type="eBike" waiting="0.00" lane="E0_0" pos="4.77" speed="1.62" angle="99.48" x="-66.03" y="27.47"/>
        <vehicle id="ebike02" eclass="Energy/default" CO2="0.00" CO="0.00" HC="0.00" NOx="0.00" PMx="0.00" fuel="0.00" electricity="0.23" noise="61.22" route="via_n5_route" type="eBike" waiting="0.00" lane="E4_0" pos="2.39" speed="0.58" angle="209.97" x="-75.79" y="24.36"/>
    </timestep>
    <timestep time="3.00">
        <vehicle id="ebike01" eclass="Energy/default" CO2="0.00" CO="0.00" HC="0.00" NOx="0.00" PMx="0.00" fuel="0.00" electricity="1.33" noise="61.94" route="main_arterial" type="eBike" waiting="0.00" lane="E0_0" pos="5.87" speed="2.21" angle="99.48" x="-64.94" y="27.29"/>
        <vehicle id="ebike02" eclass="Energy/default" CO2="0.00" CO="0.00" HC="0.00" NOx="0.00" PMx="0.00" fuel="0.00" electricity="0.22" noise="58.09" route="via_n5_route" type="eBike" waiting="0.00" lane="E4_0" pos="2.78" speed="0.79" angle="209.97" x="-75.99" y="24.02"/>
    </timestep>
    <timestep time="3.50">
        <vehicle id="ebike01" eclass="Energy/default" CO2="0.00" CO="0.00" HC="0.00" NOx="0.00" PMx="0.00" fuel="0.00" electricity="0.45" noise="57.97" route="main_arterial" type="eBike" waiting="0.00" lane="E0_0" pos="7.03" speed="2.33" angle="99.48" x="-63.79" y="27.10"/>
        <vehicle id="ebike02" eclass="Energy/default" CO2="0.00" CO="0.00" HC="0.00" NOx="0.00" PMx="0.00" fuel="0.00" electricity="0.50" noise="59.89" route="via_n5_route" type="eBike" waiting="0.00" lane="E4_0" pos="3.37" speed="1.18" angle="209.97" x="-76.29" y="23.51"/>
    </timestep>
    <timestep time="4.00">
        <vehicle id="ebike01" eclass="Energy/default" CO2="0.00" CO="0.00" HC="0.00" NOx="0.00" PMx="0.00" fuel="0.00" electricity="1.69" noise="61.91" route="main_arterial" type="eBike" waiting="0.00" lane="E0_0" pos="8.47" speed="2.88" angle="99.48" x="-62.37" y="26.86"/>
        <vehicle id="ebike02" eclass="Energy/default" CO2="0.00" CO="0.00" HC="0.00" NOx="0.00" PMx="0.00" fuel="0.00" electricity="0.63" noise="59.73" route="via_n5_route" type="eBike" waiting="0.00" lane="E4_0" pos="4.15" speed="1.55" angle="209.97" x="-76.67" y="22.84"/>
        <vehicle id="ebike03" eclass="Energy/default" CO2="0.00" CO="0.00" HC="0.00" NOx="0.00" PMx="0.00" fuel="0.00" electricity="0.03" noise="55.94" route="main_arterial" type="eBike" waiting="0.00" lane="E0_0" pos="2.10" speed="0.00" angle="99.48" x="-68.66" y="27.91"/>
    </timestep>
    <timestep time="4.50">
        <vehicle id="ebike01" eclass="Energy/default" CO2="0.00" CO="0.00" HC="0.00" NOx="0.00" PMx="0.00" fuel="0.00" electricity="1.29" noise="60.24" route="main_arterial" type="eBike" waiting="0.00" lane="E0_0" pos="10.08" speed="3.22" angle="99.48" x="-60.79" y="26.60"/>
        <vehicle id="ebike02" eclass="Energy/default" CO2="0.00" CO="0.00" HC="0.00" NOx="0.00" PMx="0.00" fuel="0.00" electricity="0.86" noise="60.16" route="via_n5_route" type="eBike" waiting="0.00" lane="E4_0" pos="5.12" speed="1.94" angle="209.97" x="-77.16" y="22.00"/>
        <vehicle id="ebike03" eclass="Energy/default" CO2="0.00" CO="0.00" HC="0.00" NOx="0.00" PMx="0.00" fuel="0.00" electricity="0.15" noise="59.95" route="main_arterial" type="eBike" waiting="0.00" lane="E0_0" pos="2.32" speed="0.44" angle="99.48" x="-68.44" y="27.88"/>
    </timestep>
    <timestep time="5.00">
        <vehicle id="ebike01" eclass="Energy/default" CO2="0.00" CO="0.00" HC="0.00" NOx="0.00" PMx="0.00" fuel="0.00" electricity="1.84" noise="61.35" route="main_arterial" type="eBike" waiting="0.00" lane="E0_0" pos="11.91" speed="3.66" angle="99.48" x="-58.98" y="26.30"/>
        <vehicle id="ebike02" eclass="Energy/default" CO2="0.00" CO="0.00" HC="0.00" NOx="0.00" PMx="0.00" fuel="0.00" electricity="0.73" noise="59.17" route="via_n5_route" type="eBike" waiting="0.00" lane="E4_0" pos="6.22" speed="2.21" angle="209.97" x="-77.71" y="21.04"/>
        <vehicle id="ebike03" eclass="Energy/default" CO2="0.00" CO="0.00" HC="0.00" NOx="0.00" PMx="0.00" fuel="0.00" electricity="0.35" noise="59.86" route="main_arterial" type="eBike" waiting="0.00" lane="E0_0" pos="2.74" speed="0.85" angle="99.48" x="-68.03" y="27.81"/>
    </timestep>
    <timestep time="5.50">
        <vehicle id="ebike01" eclass="Energy/default" CO2="0.00" CO="0.00" HC="0.00" NOx="0.00" PMx="0.00" fuel="0.00" electricity="0.91" noise="59.10" route="main_arterial" type="eBike" waiting="0.00" lane="E0_0" pos="13.83" speed="3.83" angle="99.48" x="-57.09" y="25.98"/>
        <vehicle id="ebike02" eclass="Energy/default" CO2="0.00" CO="0.00" HC="0.00" NOx="0.00" PMx="0.00" fuel="0.00" electricity="1.39" noise="61.17" route="via_n5_route" type="eBike" waiting="0.00" lane="E4_0" pos="7.56" speed="2.68" angle="209.97" x="-78.38" y="19.88"/>
        <vehicle id="ebike03" eclass="Energy/default" CO2="0.00" CO="0.00" HC="0.00" NOx="0.00" PMx="0.00" fuel="0.00" electricity="0.81" noise="61.67" route="main_arterial" type="eBike" waiting="0.00" lane="E0_0" pos="3.46" speed="1.44" angle="99.48" x="-67.32" y="27.69"/>
    </timestep>
    <timestep time="6.00">
        <vehicle id="ebike01" eclass="Energy/default" CO2="0.00" CO="0.00" HC="0.00" NOx="0.00" PMx="0.00" fuel="0.00" electricity="1.84" noise="61.01" route="main_arterial" type="eBike" waiting="0.00" lane="E0_0" pos="15.93" speed="4.20" angle="99.48" x="-55.02" y="25.64"/>
        <vehicle id="ebike02" eclass="Energy/default" CO2="0.00" CO="0.00" HC="0.00" NOx="0.00" PMx="0.00" fuel="0.00" electricity="0.65" noise="58.53" route="via_n5_route" type="eBike" waiting="0.00" lane="E4_0" pos="8.98" speed="2.84" angle="209.97" x="-79.09" y="18.65"/>
        <vehicle id="ebike03" eclass="Energy/default" CO2="0.00" CO="0.00" HC="0.00" NOx="0.00" PMx="0.00" fuel="0.00" electricity="0.75" noise="59.85" route="main_arterial" type="eBike" waiting="0.00" lane="E0_0" pos="4.36" speed="1.80" angle="99.48" x="-66.43" y="27.54"/>
        <vehicle id="ebike04" eclass="Energy/default" CO2="0.00" CO="0.00" HC="0.00" NOx="0.00" PMx="0.00" fuel="0.00" electricity="0.03" noise="55.94" route="via_n5_route" type="eBike" waiting="0.00" lane="E4_0" pos="2.10" speed="0.00" angle="209.97" x="-75.65" y="24.61"/>
    </timestep>
    <timestep time="6.50">
        <vehicle id="ebike01" eclass="Energy/default" CO2="0.00" CO="0.00" HC="0.00" NOx="0.00" PMx="0.00" fuel="0.00" electricity="3.07" noise="63.07" route="main_arterial" type="eBike" waiting="0.00" lane="E0_0" pos="18.32" speed="4.79" angle="99.48" x="-52.66" y="25.24"/>
        <vehicle id="ebike02" eclass="Energy/default" CO2="0.00" CO="0.00" HC="0.00" NOx="0.00" PMx="0.00" fuel="0.00" electricity="1.76" noise="61.47" route="via_n5_route" type="eBike" waiting="0.00" lane="E4_0" pos="10.64" speed="3.32" angle="209.97" x="-79.92" y="17.21"/>
        <vehicle id="ebike03" eclass="Energy/default" CO2="0.00" CO="0.00" HC="0.00" NOx="0.00" PMx="0.00" fuel="0.00" electricity="0.50" noise="58.33" route="main_arterial" type="eBike" waiting="0.00" lane="E0_0" pos="5.35" speed="1.98" angle="99.48" x="-65.45" y="27.38"/>
        <vehicle id="ebike04" eclass="Energy/default" CO2="0.00" CO="0.00" HC="0.00" NOx="0.00" PMx="0.00" fuel="0.00" electricity="0.14" noise="59.74" route="via_n5_route" type="eBike" waiting="0.00" lane="E4_0" pos="2.31" speed="0.41" angle="209.97" x="-75.75" y="24.43"/>
    </timestep>
    <timestep time="7.00">
        <vehicle id="ebike01" eclass="Energy/default" CO2="0.00" CO="0.00" HC="0.00" NOx="0.00" PMx="0.00" fuel="0.00" electricity="3.39" noise="63.23" route="main_arterial" type="eBike" waiting="0.00" lane="E0_0" pos="21.00" speed="5.36" angle="99.48" x="-50.01" y="24.80"/>
        <vehicle id="ebike02" eclass="Energy/default" CO2="0.00" CO="0.00" HC="0.00" NOx="0.00" PMx="0.00" fuel="0.00" electricity="2.39" noise="62.49" route="via_n5_route" type="eBike" waiting="0.00" lane="E4_0" pos="12.58" speed="3.88" angle="209.97" x="-80.89" y="15.53"/>
        <vehicle id="ebike03" eclass="Energy/default" CO2="0.00" CO="0.00" HC="0.00" NOx="0.00" PMx="0.00" fuel="0.00" electricity="1.02" noise="60.19" route="main_arterial" type="eBike" waiting="0.00" lane="E0_0" pos="6.53" speed="2.36" angle="99.48" x="-64.29" y="27.18"/>
        <vehicle id="ebike04" eclass="Energy/default" CO2="0.00" CO="0.00" HC="0.00" NOx="0.00" PMx="0.00" fuel="0.00" electricity="0.37" noise="60.14" route="via_n5_route" type="eBike" waiting="0.00" lane="E4_0" pos="2.73" speed="0.85" angle="209.97" x="-75.97" y="24.06"/>
    </timestep>
    <timestep time="7.50">
        <vehicle id="ebike01" eclass="Energy/default" CO2="0.00" CO="0.00" HC="0.00" NOx="0.00" PMx="0.00" fuel="0.00" electricity="3.21" noise="62.72" route="main_arterial" type="eBike" waiting="0.00" lane="E0_0" pos="23.92" speed="5.84" angle="99.48" x="-47.14" y="24.32"/>
        <vehicle id="ebike02" eclass="Energy/default" CO2="0.00" CO="0.00" HC="0.00" NOx="0.00" PMx="0.00" fuel="0.00" electricity="2.85" noise="62.86" route="via_n5_route" type="eBike" waiting="0.00" lane=":Node5_0_0" pos="0.72" speed="4.46" angle="207.72" x="-81.93" y="13.56"/>
        <vehicle id="ebike03" eclass="Energy/default" CO2="0.00" CO="0.00" HC="0.00" NOx="0.00" PMx="0.00" fuel="0.00" electricity="1.71" noise="61.91" route="main_arterial" type="eBike" waiting="0.00" lane="E0_0" pos="7.98" speed="2.91" angle="99.48" x="-62.86" y="26.94"/>
        <vehicle id="ebike04" eclass="Energy/default" CO2="0.00" CO="0.00" HC="0.00" NOx="0.00" PMx="0.00" fuel="0.00" electricity="0.33" noise="58.49" route="via_n5_route" type="eBike" waiting="0.00" lane="E4_0" pos="3.28" speed="1.10" angle="209.97" x="-76.24" y="23.59"/>
    </timestep>
    <timestep time="8.00">
        <vehicle id="ebike01" eclass="Energy/default" CO2="0.00" CO="0.00" HC="0.00" NOx="0.00" PMx="0.00" fuel="0.00" electricity="3.79" noise="63.37" route="main_arterial" type="eBike" waiting="0.00" lane="E0_0" pos="27.10" speed="6.36" angle="99.48" x="-44.00" y="23.79"/>
        <vehicle id="ebike02" eclass="Energy/default" CO2="0.00" CO="0.00" HC="0.00" NOx="0.00" PMx="0.00" fuel="0.00" electricity="2.62" noise="62.03" route="via_n5_route" type="eBike" waiting="0.00" lane=":Node5_0_0" pos="3.17" speed="4.91" angle="203.72" x="-82.92" y="11.31"/>
        <vehicle id="ebike03" eclass="Energy/default" CO2="0.00" CO="0.00" HC="0.00" NOx="0.00" PMx="0.00" fuel="0.00" electricity="1.51" noise="60.78" route="main_arterial" type="eBike" waiting="0.00" lane="E0_0" pos="9.63" speed="3.30" angle="99.48" x="-61.23" y="26.67"/>
        <vehicle id="ebike04" eclass="Energy/default" CO2="0.00" CO="0.00" HC="0.00" NOx="0.00" PMx="0.00" fuel="0.00" electricity="0.75" noise="60.57" route="via_n5_route" type="eBike" waiting="0.00" lane="E4_0" pos="4.06" speed="1.55" angle="209.97" x="-76.63" y="22.91"/>
    </timestep>
    <timestep time="8.50">
        <vehicle id="ebike01" eclass="Energy/default" CO2="0.00" CO="0.00" HC="0.00" NOx="0.00" PMx="0.00" fuel="0.00" electricity="1.87" noise="60.97" route="main_arterial" type="eBike" waiting="0.00" lane="E0_0" pos="30.39" speed="6.58" angle="99.48" x="-40.75" y="23.25"/>
        <vehicle id="ebike02" eclass="Energy/default" CO2="0.00" CO="0.00" HC="0.00" NOx="0.00" PMx="0.00" fuel="0.00" electricity="2.46" noise="61.64" route="via_n5_route" type="eBike" waiting="0.00" lane=":Node5_0_0" pos="5.82" speed="5.29" angle="200.41" x="-83.87" y="8.86"/>
        <vehicle id="ebike03" eclass="Energy/default" CO2="0.00" CO="0.00" HC="0.00" NOx="0.00" PMx="0.00" fuel="0.00" electricity="1.55" noise="60.63" route="main_arterial" type="eBike" waiting="0.00" lane="E0_0" pos="11.47" speed="3.66" angle="99.48" x="-59.42" y="26.37"/>
        <vehicle id="ebike04" eclass="Energy/default" CO2="0.00" CO="0.00" HC="0.00" NOx="0.00" PMx="0.00" fuel="0.00" electricity="0.74" noise="59.65" route="via_n5_route" type="eBike" waiting="0.00" lane="E4_0" pos="5.01" speed="1.89" angle="209.97" x="-77.10" y="22.09"/>
        <vehicle id="ebike05" eclass="Energy/default" CO2="0.00" CO="0.00" HC="0.00" NOx="0.00" PMx="0.00" fuel="0.00" electricity="0.03" noise="55.94" route="southern_route" type="eBike" waiting="0.00" lane="E4_0" pos="2.10" speed="0.00" angle="209.97" x="-75.65" y="24.61"/>
    </timestep>
    <timestep time="9.00">
        <vehicle id="ebike01" eclass="Energy/default" CO2="0.00" CO="0.00" HC="0.00" NOx="0.00" PMx="0.00" fuel="0.00" electricity="1.38" noise="60.46" route="main_arterial" type="eBike" waiting="0.00" lane="E0_0" pos="33.75" speed="6.71" angle="99.48" x="-37.44" y="22.70"/>
        <vehicle id="ebike02" eclass="Energy/default" CO2="0.00" CO="0.00" HC="0.00" NOx="0.00" PMx="0.00" fuel="0.00" electricity="4.26" noise="63.71" route="via_n5_route" type="eBike" waiting="0.00" lane=":Node5_0_0" pos="8.77" speed="5.89" angle="183.22" x="-84.03" y="5.92"/>
        <vehicle id="ebike03" eclass="Energy/default" CO2="0.00" CO="0.00" HC="0.00" NOx="0.00" PMx="0.00" fuel="0.00" electricity="1.14" noise="59.59" route="main_arterial" type="eBike" waiting="0.00" lane="E0_0" pos="13.41" speed="3.89" angle="99.48" x="-57.50" y="26.05"/>
        <vehicle id="ebike04" eclass="Energy/default" CO2="0.00" CO="0.00" HC="0.00" NOx="0.00" PMx="0.00" fuel="0.00" electricity="0.70" noise="59.10" route="via_n5_route" type="eBike" waiting="0.00" lane="E4_0" pos="6.08" speed="2.15" angle="209.97" x="-77.64" y="21.16"/>
        <vehicle id="ebike05" eclass="Energy/default" CO2="0.00" CO="0.00" HC="0.00" NOx="0.00" PMx="0.00" fuel="0.00" electricity="0.09" noise="58.70" route="southern_route" type="eBike" waiting="0.00" lane="E4_0" pos="2.25" speed="0.30" angle="209.97" x="-75.72" y="24.48"/>
    </timestep>
    <timestep time="9.50">
        <vehicle id="ebike01" eclass="Energy/default" CO2="0.00" CO="0.00" HC="0.00" NOx="0.00" PMx="0.00" fuel="0.00" electricity="2.03" noise="61.24" route="main_arterial" type="eBike" waiting="0.00" lane="E0_0" pos="37.21" speed="6.93" angle="99.48" x="-34.02" y="22.13"/>
        <vehicle id="ebike02" eclass="Energy/default" CO2="0.00" CO="0.00" HC="0.00" NOx="0.00" PMx="0.00" fuel="0.00" electricity="5.19" noise="64.05" route="via_n5_route" type="eBike" waiting="0.00" lane=":Node5_0_0" pos="12.01" speed="6.49" angle="147.17" x="-82.66" y="3.09"/>
        <vehicle id="ebike03" eclass="Energy/default" CO2="0.00" CO="0.00" HC="0.00" NOx="0.00" PMx="0.00" fuel="0.00" electricity="1.07" noise="59.43" route="main_arterial" type="eBike" waiting="0.00" lane="E0_0" pos="15.45" speed="4.08" angle="99.48" x="-55.49" y="25.71"/>
        <vehicle id="ebike04" eclass="Energy/default" CO2="0.00" CO="0.00" HC="0.00" NOx="0.00" PMx="0.00" fuel="0.00" electricity="0.83" noise="59.36" route="via_n5_route" type="eBike" waiting="0.00" lane="E4_0" pos="7.30" speed="2.43" angle="209.97" x="-78.25" y="20.11"/>
        <vehicle id="ebike05" eclass="Energy/default" CO2="0.00" CO="0.00" HC="0.00" NOx="0.00" PMx="0.00" fuel="0.00" electricity="0.22" noise="59.06" route="southern_route" type="eBike" waiting="0.00" lane="E4_0" pos="2.56" speed="0.63" angle="209.97" x="-75.88" y="24.21"/>
    </timestep>
    <timestep time="10.00">
        <vehicle id="ebike01" eclass="Energy/default" CO2="0.00" CO="0.00" HC="0.00" NOx="0.00" PMx="0.00" fuel="0.00" electricity="5.05" noise="64.55" route="main_arterial" type="eBike" waiting="0.00" lane="E0_0" pos="40.98" speed="7.53" angle="99.48" x="-30.31" y="21.51"/>
        <vehicle id="ebike02" eclass="Energy/default" CO2="0.00" CO="0.00" HC="0.00" NOx="0.00" PMx="0.00" fuel="0.00" electricity="3.77" noise="62.24" route="via_n5_route" type="eBike" waiting="0.00" lane=":Node5_2_0" pos="2.31" speed="6.85" angle="113.64" x="-79.79" y="1.41"/>
        <vehicle id="ebike03" eclass="Energy/default" CO2="0.00" CO="0.00" HC="0.00" NOx="0.00" PMx="0.00" fuel="0.00" electricity="2.78" noise="62.65" route="main_arterial" type="eBike" waiting="0.00" lane="E0_0" pos="17.76" speed="4.62" angle="99.48" x="-53.21" y="25.33"/>
        <vehicle id="ebike04" eclass="Energy/default" CO2="0.00" CO="0.00" HC="0.00" NOx="0.00" PMx="0.00" fuel="0.00" electricity="1.89" noise="62.33" route="via_n5_route" type="eBike" waiting="0.00" lane="E4_0" pos="8.81" speed="3.02" angle="209.97" x="-79.00" y="18.80"/>
        <vehicle id="ebike05" eclass="Energy/default" CO2="0.00" CO="0.00" HC="0.00" NOx="0.00" PMx="0.00" fuel="0.00" electricity="0.49" noise="60.29" route="southern_route" type="eBike" waiting="0.00" lane="E4_0" pos="3.10" speed="1.08" angle="209.97" x="-76.15" y="23.74"/>
        <vehicle id="ebike06" eclass="Energy/default" CO2="0.00" CO="0.00" HC="0.00" NOx="0.00" PMx="0.00" fuel="0.00" electricity="0.03" noise="55.94" route="main_arterial" type="eBike" waiting="0.00" lane="E0_0" pos="2.10" speed="0.00" angle="99.48" x="-68.66" y="27.91"/>
    </timestep>
    <timestep time="10.50">
        <vehicle id="ebike01" eclass="Energy/default" CO2="0.00" CO="0.00" HC="0.00" NOx="0.00" PMx="0.00" fuel="0.00" electricity="2.00" noise="61.46" route="main_arterial" type="eBike" waiting="0.00" lane="E0_0" pos="44.84" speed="7.72" angle="99.48" x="-26.50" y="20.87"/>
        <vehicle id="ebike02" eclass="Energy/default" CO2="0.00" CO="0.00" HC="0.00" NOx="0.00" PMx="0.00" fuel="0.00" electricity="1.80" noise="60.73" route="via_n5_route" type="eBike" waiting="0.00" lane="E11_0" pos="2.05" speed="6.99" angle="102.87" x="-76.46" y="0.37"/>
        <vehicle id="ebike03" eclass="Energy/default" CO2="0.00" CO="0.00" HC="0.00" NOx="0.00" PMx="0.00" fuel="0.00" electricity="3.01" noise="62.71" route="main_arterial" type="eBike" waiting="0.00" lane="E0_0" pos="20.33" speed="5.14" angle="99.48" x="-50.67" y="24.91"/>
        <vehicle id="ebike04" eclass="Energy/default" CO2="0.00" CO="0.00" HC="0.00" NOx="0.00" PMx="0.00" fuel="0.00" electricity="1.93" noise="61.73" route="via_n5_route" type="eBike" waiting="0.00" lane="E4_0" pos="10.57" speed="3.52" angle="209.97" x="-79.88" y="17.27"/>
        <vehicle id="ebike05" eclass="Energy/default" CO2="0.00" CO="0.00" HC="0.00" NOx="0.00" PMx="0.00" fuel="0.00" electricity="0.36" noise="58.33" route="southern_route" type="eBike" waiting="0.00" lane="E4_0" pos="3.75" speed="1.29" angle="209.97" x="-76.47" y="23.18"/>
        <vehicle id="ebike06" eclass="Energy/default" CO2="0.00" CO="0.00" HC="0.00" NOx="0.00" PMx="0.00" fuel="0.00" electricity="0.14" noise="59.71" route="main_arterial" type="eBike" waiting="0.00" lane="E0_0" pos="2.31" speed="0.41" angle="99.48" x="-68.46" y="27.88"/>
    </timestep>
    <timestep time="11.00">
        <vehicle id="ebike01" eclass="Energy/default" CO2="0.00" CO="0.00" HC="0.00" NOx="0.00" PMx="0.00" fuel="0.00" electricity="4.46" noise="63.87" route="main_arterial" type="eBike" waiting="0.00" lane="E0_0" pos="48.93" speed="8.18" angle="99.48" x="-22.47" y="20.20"/>
        <vehicle id="ebike02" eclass="Energy/default" CO2="0.00" CO="0.00" HC="0.00" NOx="0.00" PMx="0.00" fuel="0.00" electricity="1.36" noise="60.60" route="via_n5_route" type="eBike" waiting="0.00" lane="E11_0" pos="5.61" speed="7.12" angle="102.87" x="-72.99" y="-0.42"/>
        <vehicle id="ebike03" eclass="Energy/default" CO2="0.00" CO="0.00" HC="0.00" NOx="0.00" PMx="0.00" fuel="0.00" electricity="2.05" noise="61.08" route="main_arterial" type="eBike" waiting="0.00" lane="E0_0" pos="23.06" speed="5.45" angle="99.48" x="-47.98" y="24.46"/>
        <vehicle id="ebike04" eclass="Energy/default" CO2="0.00" CO="0.00" HC="0.00" NOx="0.00" PMx="0.00" fuel="0.00" electricity="1.77" noise="61.01" route="via_n5_route" type="eBike" waiting="0.00" lane="E4_0" pos="12.52" speed="3.91" angle="209.97" x="-80.86" y="15.58"/>
        <vehicle id="ebike05" eclass="Energy/default" CO2="0.00" CO="0.00" HC="0.00" NOx="0.00" PMx="0.00" fuel="0.00" electricity="0.92" noise="60.97" route="southern_route" type="eBike" waiting="0.00" lane="E4_0" pos="4.64" speed="1.78" angle="209.97" x="-76.92" y="22.41"/>
        <vehicle id="ebike06" eclass="Energy/default" CO2="0.00" CO="0.00" HC="0.00" NOx="0.00" PMx="0.00" fuel="0.00" electricity="0.49" noise="61.22" route="main_arterial" type="eBike" waiting="0.00" lane="E0_0" pos="2.79" speed="0.97" angle="99.48" x="-67.98" y="27.80"/>
    </timestep>
    <timestep time="11.50">
        <vehicle id="ebike01" eclass="Energy/default" CO2="0.00" CO="0.00" HC="0.00" NOx="0.00" PMx="0.00" fuel="0.00" electricity="2.82" noise="62.44" route="main_arterial" type="eBike" waiting="0.00" lane="E0_0" pos="53.15" speed="8.44" angle="99.48" x="-18.30" y="19.50"/>
        <vehicle id="ebike02" eclass="Energy/default" CO2="0.00" CO="0.00" HC="0.00" NOx="0.00" PMx="0.00" fuel="0.00" electricity="2.40" noise="61.74" route="via_n5_route" type="eBike" waiting="0.00" lane="E11_0" pos="9.29" speed="7.37" angle="102.87" x="-69.40" y="-1.24"/>
        <vehicle id="ebike03" eclass="Energy/default" CO2="0.00" CO="0.00" HC="0.00" NOx="0.00" PMx="0.00" fuel="0.00" electricity="1.95" noise="60.94" route="main_arterial" type="eBike" waiting="0.00" lane="E0_0" pos="25.92" speed="5.72" angle="99.48" x="-45.16" y="23.99"/>
        <vehicle id="ebike04" eclass="Energy/default" CO2="0.00" CO="0.00" HC="0.00" NOx="0.00" PMx="0.00" fuel="0.00" electricity="0.77" noise="58.78" route="via_n5_route" type="eBike" waiting="0.00" lane=":Node5_0_0" pos="0.44" speed="4.03" angle="208.58" x="-81.82" y="13.81"/>
        <vehicle id="ebike05" eclass="Energy/default" CO2="0.00" CO="0.00" HC="0.00" NOx="0.00" PMx="0.00" fuel="0.00" electricity="1.40" noise="61.89" route="southern_route" type="eBike" waiting="0.00" lane="E4_0" pos="5.82" speed="2.35" angle="209.97" x="-77.51" y="21.39"/>
        <vehicle id="ebike06" eclass="Energy/default" CO2="0.00" CO="0.00" HC="0.00" NOx="0.00" PMx="0.00" fuel="0.00" electricity="0.24" noise="57.63" route="main_arterial" type="eBike" waiting="0.00" lane="E0_0" pos="3.35" speed="1.11" angle="99.48" x="-67.43" y="27.71"/>
    </timestep>
    <timestep time="12.00">
        <vehicle id="ebike01" eclass="Energy/default" CO2="0.00" CO="0.00" HC="0.00" NOx="0.00" PMx="0.00" fuel="0.00" electricity="2.27" noise="62.06" route="main_arterial" type="eBike" waiting="0.00" lane="E0_0" pos="57.47" speed="8.63" angle="99.48" x="-14.05" y="18.79"/>
        <vehicle id="ebike02" eclass="Energy/default" CO2="0.00" CO="0.00" HC="0.00" NOx="0.00" PMx="0.00" fuel="0.00" electricity="3.43" noise="62.84" route="via_n5_route" type="eBike" waiting="0.00" lane="E11_0" pos="13.16" speed="7.73" angle="102.87" x="-65.63" y="-2.10"/>
        <vehicle id="ebike03" eclass="Energy/default" CO2="0.00" CO="0.00" HC="0.00" NOx="0.00" PMx="0.00" fuel="0.00" electricity="3.49" noise="63.01" route="main_arterial" type="eBike" waiting="0.00" lane="E0_0" pos="29.03" speed="6.21" angle="99.48" x="-42.10" y="23.48"/>
        <vehicle id="ebike04" eclass="Energy/default" CO2="0.00" CO="0.00" HC="0.00" NOx="0.00" PMx="0.00" fuel="0.00" electricity="2.57" noise="62.15" route="via_n5_route" type="eBike" waiting="0.00" lane=":Node5_0_0" pos="2.70" speed="4.52" angle="203.72" x="-82.73" y="11.75"/>
        <vehicle id="ebike05" eclass="Energy/default" CO2="0.00" CO="0.00" HC="0.00" NOx="0.00" PMx="0.00" fuel="0.00" electricity="1.87" noise="62.39" route="southern_route" type="eBike" waiting="0.00" lane="E4_0" pos="7.29" speed="2.95" angle="209.97" x="-78.24" y="20.11"/>
        <vehicle id="ebike06" eclass="Energy/default" CO2="0.00" CO="0.00" HC="0.00" NOx="0.00" PMx="0.00" fuel="0.00" electricity="0.69" noise="60.18" route="main_arterial" type="eBike" waiting="0.00" lane="E0_0" pos="4.11" speed="1.53" angle="99.48" x="-66.68" y="27.58"/>
        <vehicle id="ebike07" eclass="Energy/default" CO2="0.00" CO="0.00" HC="0.00" NOx="0.00" PMx="0.00" fuel="0.00" electricity="0.03" noise="55.94" route="via_n5_route" type="eBike" waiting="0.00" lane="E4_0" pos="2.10" speed="0.00" angle="209.97" x="-75.65" y="24.61"/>
    </timestep>
    <timestep time="12.50">
        <vehicle id="ebike01" eclass="Energy/default" CO2="0.00" CO="0.00" HC="0.00" NOx="0.00" PMx="0.00" fuel="0.00" electricity="5.69" noise="64.97" route="main_arterial" type="eBike" waiting="0.00" lane="E0_0" pos="62.05" speed="9.17" angle="99.48" x="-9.53" y="18.04"/>
        <vehicle id="ebike02" eclass="Energy/default" CO2="0.00" CO="0.00" HC="0.00" NOx="0.00" PMx="0.00" fuel="0.00" electricity="3.40" noise="62.86" route="via_n5_route" type="eBike" waiting="0.00" lane="E11_0" pos="17.20" speed="8.08" angle="102.87" x="-61.69" y="-3.00"/>
        <vehicle id="ebike03" eclass="Energy/default" CO2="0.00" CO="0.00" HC="0.00" NOx="0.00" PMx="0.00" fuel="0.00" electricity="3.14" noise="62.49" route="main_arterial" type="eBike" waiting="0.00" lane="E0_0" pos="32.34" speed="6.62" angle="99.48" x="-38.84" y="22.93"/>
        <vehicle id="ebike04" eclass="Energy/default" CO2="0.00" CO="0.00" HC="0.00" NOx="0.00" PMx="0.00" fuel="0.00" electricity="1.28" noise="59.84" route="via_n5_route" type="eBike" waiting="0.00" lane=":Node5_0_0" pos="5.06" speed="4.72" angle="203.72" x="-83.68" y="9.59"/>
        <vehicle id="ebike05" eclass="Energy/default" CO2="0.00" CO="0.00" HC="0.00" NOx="0.00" PMx="0.00" fuel="0.00" electricity="2.11" noise="62.22" route="southern_route" type="eBike" waiting="0.00" lane="E4_0" pos="9.05" speed="3.51" angle="209.97" x="-79.12" y="18.59"/>
        <vehicle id="ebike06" eclass="Energy/default" CO2="0.00" CO="0.00" HC="0.00" NOx="0.00" PMx="0.00" fuel="0.00" electricity="0.76" noise="59.78" route="main_arterial" type="eBike" waiting="0.00" lane="E0_0" pos="5.05" speed="1.88" angle="99.48" x="-65.75" y="27.43"/>
        <vehicle id="ebike07" eclass="Energy/default" CO2="0.00" CO="0.00" HC="0.00" NOx="0.00" PMx="0.00" fuel="0.00" electricity="0.18" noise="60.50" route="via_n5_route" type="eBike" waiting="0.00" lane="E4_0" pos="2.35" speed="0.50" angle="209.97" x="-75.77" y="24.39"/>