<?xml version="1.0" encoding="UTF-8"?>

<!-- generated on 2025-09-20 22:11:01 by Eclipse SUMO GUI Version 1.22.0
<sumoConfiguration xmlns:xsi="http://www.w3.org/2001/XMLSchema-instance" xsi:noNamespaceSchemaLocation="http://sumo.dlr.de/xsd/sumoConfiguration.xsd">

    <input>
        <net-file value="D:\JUST\Thesis\Implementation\New2 ( with charging staton )\MOD0\Test1.net.xml"/>
        <route-files value="D:\JUST\Thesis\Implementation\New2 ( with charging staton )\MOD0\Test1.rou.xml"/>
        <additional-files value="D:\JUST\Thesis\Implementation\New2 ( with charging staton )\MOD0\Test1.add.xml"/>
    </input>

    <output>
        <emission-output value="D:\JUST\Thesis\Implementation\New2 ( with charging staton )\MOD0\emissions.xml"/>
        <battery-output value="D:\JUST\Thesis\Implementation\New2 ( with charging staton )\MOD0\battery.xml"/>
        <chargingstations-output value="D:\JUST\Thesis\Implementation\New2 ( with charging staton )\MOD0\chargingstations.xml"/>
        <fcd-output value="D:\JUST\Thesis\Implementation\New2 ( with charging staton )\MOD0\fcd.xml"/>
        <summary-output value="D:\JUST\Thesis\Implementation\New2 ( with charging staton )\MOD0\summary.xml"/>
        <tripinfo-output value="D:\JUST\Thesis\Implementation\New2 ( with charging staton )\MOD0\tripinfo.xml"/>
    </output>

    <time>
        <begin value="0"/>
        <end value="100"/>
        <step-length value="0.5"/>
    </time>

    <processing>
        <lateral-resolution value="0.8"/>
        <ignore-junction-blocker value="5"/>
        <ignore-route-errors value="true"/>
        <collision.check-junctions value="true"/>
    </processing>

    <report>
        <verbose value="true"/>
        <duration-log.statistics value="true"/>
    </report>

    <emissions>
        <device.emissions.probability value="1"/>
    </emissions>

    <battery>
        <device.battery.probability value="1"/>
    </battery>

</sumoConfiguration>
-->

<fcd-export xmlns:xsi="http://www.w3.org/2001/XMLSchema-instance" xsi:noNamespaceSchemaLocation="http://sumo.dlr.de/xsd/fcd_file.xsd">
    <timestep time="0.00">
        <vehicle id="ebike01" x="-68.66" y="27.91" angle="99.48" type="eBike" speed="0.00" pos="2.10" lane="E0_0" slope="0.00"/>
    </timestep>
    <timestep time="0.50">
        <vehicle id="ebike01" x="-68.38" y="27.87" angle="99.48" type="eBike" speed="0.56" pos="2.38" lane="E0_0" slope="0.00"/>
    </timestep>
    <timestep time="1.00">
        <vehicle id="ebike01" x="-68.03" y="27.81" angle="99.48" type="eBike" speed="0.71" pos="2.74" lane="E0_0" slope="0.00"/>
    </timestep>
    <timestep time="1.50">
        <vehicle id="ebike01" x="-67.53" y="27.73" angle="99.48" type="eBike" speed="1.01" pos="3.24" lane="E0_0" slope="0.00"/>
    </timestep>
    <timestep time="2.00">
        <vehicle id="ebike01" x="-66.83" y="27.61" angle="99.48" type="eBike" speed="1.42" pos="3.95" lane="E0_0" slope="0.00"/>
        <vehicle id="ebike02" x="-75.65" y="24.61" angle="209.97" type="eBike" speed="0.00" pos="2.10" lane="E4_0" slope="0.00"/>
    </timestep>
    <timestep time="2.50">
        <vehicle id="ebike01" x="-66.03" y="27.47" angle="99.48" type="eBike" speed="1.62" pos="4.77" lane="E0_0" slope="0.00"/>
        <vehicle id="ebike02" x="-75.79" y="24.36" angle="209.97" type="eBike" speed="0.58" pos="2.39" lane="E4_0" slope="0.00"/>
    </timestep>
    <timestep time="3.00">
        <vehicle id="ebike01" x="-64.94" y="27.29" angle="99.48" type="eBike" speed="2.21" pos="5.87" lane="E0_0" slope="0.00"/>
        <vehicle id="ebike02" x="-75.99" y="24.02" angle="209.97" type="eBike" speed="0.79" pos="2.78" lane="E4_0" slope="0.00"/>
    </timestep>
    <timestep time="3.50">
        <vehicle id="ebike01" x="-63.79" y="27.10" angle="99.48" type="eBike" speed="2.33" pos="7.03" lane="E0_0" slope="0.00"/>
        <vehicle id="ebike02" x="-76.29" y="23.51" angle="209.97" type="eBike" speed="1.18" pos="3.37" lane="E4_0" slope="0.00"/>
    </timestep>
    <timestep time="4.00">
        <vehicle id="ebike01" x="-62.37" y="26.86" angle="99.48" type="eBike" speed="2.88" pos="8.47" lane="E0_0" slope="0.00"/>
        <vehicle id="ebike02" x="-76.67" y="22.84" angle="209.97" type="eBike" speed="1.55" pos="4.15" lane="E4_0" slope="0.00"/>
        <vehicle id="ebike03" x="-68.66" y="27.91" angle="99.48" type="eBike" speed="0.00" pos="2.10" lane="E0_0" slope="0.00"/>
    </timestep>
    <timestep time="4.50">
        <vehicle id="ebike01" x="-60.79" y="26.60" angle="99.48" type="eBike" speed="3.22" pos="10.08" lane="E0_0" slope="0.00"/>
        <vehicle id="ebike02" x="-77.16" y="22.00" angle="209.97" type="eBike" speed="1.94" pos="5.12" lane="E4_0" slope="0.00"/>
        <vehicle id="ebike03" x="-68.44" y="27.88" angle="99.48" type="eBike" speed="0.44" pos="2.32" lane="E0_0" slope="0.00"/>
    </timestep>
    <timestep time="5.00">
        <vehicle id="ebike01" x="-58.98" y="26.30" angle="99.48" type="eBike" speed="3.66" pos="11.91" lane="E0_0" slope="0.00"/>
        <vehicle id="ebike02" x="-77.71" y="21.04" angle="209.97" type="eBike" speed="2.21" pos="6.22" lane="E4_0" slope="0.00"/>
        <vehicle id="ebike03" x="-68.03" y="27.81" angle="99.48" type="eBike" speed="0.85" pos="2.74" lane="E0_0" slope="0.00"/>
    </timestep>
    <timestep time="5.50">
        <vehicle id="ebike01" x="-57.09" y="25.98" angle="99.48" type="eBike" speed="3.83" pos="13.83" lane="E0_0" slope="0.00"/>
        <vehicle id="ebike02" x="-78.38" y="19.88" angle="209.97" type="eBike" speed="2.68" pos="7.56" lane="E4_0" slope="0.00"/>
        <vehicle id="ebike03" x="-67.32" y="27.69" angle="99.48" type="eBike" speed="1.44" pos="3.46" lane="E0_0" slope="0.00"/>
    </timestep>
    <timestep time="6.00">
        <vehicle id="ebike01" x="-55.02" y="25.64" angle="99.48" type="eBike" speed="4.20" pos="15.93" lane="E0_0" slope="0.00"/>
        <vehicle id="ebike02" x="-79.09" y="18.65" angle="209.97" type="eBike" speed="2.84" pos="8.98" lane="E4_0" slope="0.00"/>
        <vehicle id="ebike03" x="-66.43" y="27.54" angle="99.48" type="eBike" speed="1.80" pos="4.36" lane="E0_0" slope="0.00"/>
        <vehicle id="ebike04" x="-75.65" y="24.61" angle="209.97" type="eBike" speed="0.00" pos="2.10" lane="E4_0" slope="0.00"/>
    </timestep>
    <timestep time="6.50">
        <vehicle id="ebike01" x="-52.66" y="25.24" angle="99.48" type="eBike" speed="4.79" pos="18.32" lane="E0_0" slope="0.00"/>
        <vehicle id="ebike02" x="-79.92" y="17.21" angle="209.97" type="eBike" speed="3.32" pos="10.64" lane="E4_0" slope="0.00"/>
        <vehicle id="ebike03" x="-65.45" y="27.38" angle="99.48" type="eBike" speed="1.98" pos="5.35" lane="E0_0" slope="0.00"/>
        <vehicle id="ebike04" x="-75.75" y="24.43" angle="209.97" type="eBike" speed="0.41" pos="2.31" lane="E4_0" slope="0.00"/>
    </timestep>
    <timestep time="7.00">
        <vehicle id="ebike01" x="-50.01" y="24.80" angle="99.48" type="eBike" speed="5.36" pos="21.00" lane="E0_0" slope="0.00"/>
        <vehicle id="ebike02" x="-80.89" y="15.53" angle="209.97" type="eBike" speed="3.88" pos="12.58" lane="E4_0" slope="0.00"/>
        <vehicle id="ebike03" x="-64.29" y="27.18" angle="99.48" type="eBike" speed="2.36" pos="6.53" lane="E0_0" slope="0.00"/>
        <vehicle id="ebike04" x="-75.97" y="24.06" angle="209.97" type="eBike" speed="0.85" pos="2.73" lane="E4_0" slope="0.00"/>
    </timestep>
    <timestep time="7.50">
        <vehicle id="ebike01" x="-47.14" y="24.32" angle="99.48" type="eBike" speed="5.84" pos="23.92" lane="E0_0" slope="0.00"/>
        <vehicle id="ebike02" x="-81.93" y="13.56" angle="207.72" type="eBike" speed="4.46" pos="0.72" lane=":Node5_0_0" slope="0.00"/>
        <vehicle id="ebike03" x="-62.86" y="26.94" angle="99.48" type="eBike" speed="2.91" pos="7.98" lane="E0_0" slope="0.00"/>
        <vehicle id="ebike04" x="-76.24" y="23.59" angle="209.97" type="eBike" speed="1.10" pos="3.28" lane="E4_0" slope="0.00"/>
    </timestep>
    <timestep time="8.00">
        <vehicle id="ebike01" x="-44.00" y="23.79" angle="99.48" type="eBike" speed="6.36" pos="27.10" lane="E0_0" slope="0.00"/>
        <vehicle id="ebike02" x="-82.92" y="11.31" angle="203.72" type="eBike" speed="4.91" pos="3.17" lane=":Node5_0_0" slope="0.00"/>
        <vehicle id="ebike03" x="-61.23" y="26.67" angle="99.48" type="eBike" speed="3.30" pos="9.63" lane="E0_0" slope="0.00"/>
        <vehicle id="ebike04" x="-76.63" y="22.91" angle="209.97" type="eBike" speed="1.55" pos="4.06" lane="E4_0" slope="0.00"/>
    </timestep>
    <timestep time="8.50">
        <vehicle id="ebike01" x="-40.75" y="23.25" angle="99.48" type="eBike" speed="6.58" pos="30.39" lane="E0_0" slope="0.00"/>
        <vehicle id="ebike02" x="-83.87" y="8.86" angle="200.41" type="eBike" speed="5.29" pos="5.82" lane=":Node5_0_0" slope="0.00"/>
        <vehicle id="ebike03" x="-59.42" y="26.37" angle="99.48" type="eBike" speed="3.66" pos="11.47" lane="E0_0" slope="0.00"/>
        <vehicle id="ebike04" x="-77.10" y="22.09" angle="209.97" type="eBike" speed="1.89" pos="5.01" lane="E4_0" slope="0.00"/>
        <vehicle id="ebike05" x="-75.65" y="24.61" angle="209.97" type="eBike" speed="0.00" pos="2.10" lane="E4_0" slope="0.00"/>
    </timestep>
    <timestep time="9.00">
        <vehicle id="ebike01" x="-37.44" y="22.70" angle="99.48" type="eBike" speed="6.71" pos="33.75" lane="E0_0" slope="0.00"/>
        <vehicle id="ebike02" x="-84.03" y="5.92" angle="183.22" type="eBike" speed="5.89" pos="8.77" lane=":Node5_0_0" slope="0.00"/>
        <vehicle id="ebike03" x="-57.50" y="26.05" angle="99.48" type="eBike" speed="3.89" pos="13.41" lane="E0_0" slope="0.00"/>
        <vehicle id="ebike04" x="-77.64" y="21.16" angle="209.97" type="eBike" speed="2.15" pos="6.08" lane="E4_0" slope="0.00"/>
        <vehicle id="ebike05" x="-75.72" y="24.48" angle="209.97" type="eBike" speed="0.30" pos="2.25" lane="E4_0" slope="0.00"/>
    </timestep>
    <timestep time="9.50">
        <vehicle id="ebike01" x="-34.02" y="22.13" angle="99.48" type="eBike" speed="6.93" pos="37.21" lane="E0_0" slope="0.00"/>
        <vehicle id="ebike02" x="-82.66" y="3.09" angle="147.17" type="eBike" speed="6.49" pos="12.01" lane=":Node5_0_0" slope="0.00"/>
        <vehicle id="ebike03" x="-55.49" y="25.71" angle="99.48" type="eBike" speed="4.08" pos="15.45" lane="E0_0" slope="0.00"/>
        <vehicle id="ebike04" x="-78.25" y="20.11" angle="209.97" type="eBike" speed="2.43" pos="7.30" lane="E4_0" slope="0.00"/>
        <vehicle id="ebike05" x="-75.88" y="24.21" angle="209.97" type="eBike" speed="0.63" pos="2.56" lane="E4_0" slope="0.00"/>
    </timestep>
    <timestep time="10.00">
        <vehicle id="ebike01" x="-30.31" y="21.51" angle="99.48" type="eBike" speed="7.53" pos="40.98" lane="E0_0" slope="0.00"/>
        <vehicle id="ebike02" x="-79.79" y="1.41" angle="113.64" type="eBike" speed="6.85" pos="2.31" lane=":Node5_2_0" slope="0.00"/>
        <vehicle id="ebike03" x="-53.21" y="25.33" angle="99.48" type="eBike" speed="4.62" pos="17.76" lane="E0_0" slope="0.00"/>
        <vehicle id="ebike04" x="-79.00" y="18.80" angle="209.97" type="eBike" speed="3.02" pos="8.81" lane="E4_0" slope="0.00"/>
        <vehicle id="ebike05" x="-76.15" y="23.74" angle="209.97" type="eBike" speed="1.08" pos="3.10" lane="E4_0" slope="0.00"/>
        <vehicle id="ebike06" x="-68.66" y="27.91" angle="99.48" type="eBike" speed="0.00" pos="2.10" lane="E0_0" slope="0.00"/>
    </timestep>
    <timestep time="10.50">
        <vehicle id="ebike01" x="-26.50" y="20.87" angle="99.48" type="eBike" speed="7.72" pos="44.84" lane="E0_0" slope="0.00"/>
        <vehicle id="ebike02" x="-76.46" y="0.37" angle="102.87" type="eBike" speed="6.99" pos="2.05" lane="E11_0" slope="0.00"/>
        <vehicle id="ebike03" x="-50.67" y="24.91" angle="99.48" type="eBike" speed="5.14" pos="20.33" lane="E0_0" slope="0.00"/>
        <vehicle id="ebike04" x="-79.88" y="17.27" angle="209.97" type="eBike" speed="3.52" pos="10.57" lane="E4_0" slope="0.00"/>
        <vehicle id="ebike05" x="-76.47" y="23.18" angle="209.97" type="eBike" speed="1.29" pos="3.75" lane="E4_0" slope="0.00"/>
        <vehicle id="ebike06" x="-68.46" y="27.88" angle="99.48" type="eBike" speed="0.41" pos="2.31" lane="E0_0" slope="0.00"/>
    </timestep>
    <timestep time="11.00">
        <vehicle id="ebike01" x="-22.47" y="20.20" angle="99.48" type="eBike" speed="8.18" pos="48.93" lane="E0_0" slope="0.00"/>
        <vehicle id="ebike02" x="-72.99" y="-0.42" angle="102.87" type="eBike" speed="7.12" pos="5.61" lane="E11_0" slope="0.00"/>
        <vehicle id="ebike03" x="-47.98" y="24.46" angle="99.48" type="eBike" speed="5.45" pos="23.06" lane="E0_0" slope="0.00"/>
        <vehicle id="ebike04" x="-80.86" y="15.58" angle="209.97" type="eBike" speed="3.91" pos="12.52" lane="E4_0" slope="0.00"/>
        <vehicle id="ebike05" x="-76.92" y="22.41" angle="209.97" type="eBike" speed="1.78" pos="4.64" lane="E4_0" slope="0.00"/>
        <vehicle id="ebike06" x="-67.98" y="27.80" angle="99.48" type="eBike" speed="0.97" pos="2.79" lane="E0_0" slope="0.00"/>
    </timestep>
    <timestep time="11.50">
        <vehicle id="ebike01" x="-18.30" y="19.50" angle="99.48" type="eBike" speed="8.44" pos="53.15" lane="E0_0" slope="0.00"/>
        <vehicle id="ebike02" x="-69.40" y="-1.24" angle="102.87" type="eBike" speed="7.37" pos="9.29" lane="E11_0" slope="0.00"/>
        <vehicle id="ebike03" x="-45.16" y="23.99" angle="99.48" type="eBike" speed="5.72" pos="25.92" lane="E0_0" slope="0.00"/>
        <vehicle id="ebike04" x="-81.82" y="13.81" angle="208.58" type="eBike" speed="4.03" pos="0.44" lane=":Node5_0_0" slope="0.00"/>
        <vehicle id="ebike05" x="-77.51" y="21.39" angle="209.97" type="eBike" speed="2.35" pos="5.82" lane="E4_0" slope="0.00"/>
        <vehicle id="ebike06" x="-67.43" y="27.71" angle="99.48" type="eBike" speed="1.11" pos="3.35" lane="E0_0" slope="0.00"/>
    </timestep>
    <timestep time="12.00">
        <vehicle id="ebike01" x="-14.05" y="18.79" angle="99.48" type="eBike" speed="8.63" pos="57.47" lane="E0_0" slope="0.00"/>
        <vehicle id="ebike02" x="-65.63" y="-2.10" angle="102.87" type="eBike" speed="7.73" pos="13.16" lane="E11_0" slope="0.00"/>
        <vehicle id="ebike03" x="-42.10" y="23.48" angle="99.48" type="eBike" speed="6.21" pos="29.03" lane="E0_0" slope="0.00"/>
        <vehicle id="ebike04" x="-82.73" y="11.75" angle="203.72" type="eBike" speed="4.52" pos="2.70" lane=":Node5_0_0" slope="0.00"/>
        <vehicle id="ebike05" x="-78.24" y="20.11" angle="209.97" type="eBike" speed="2.95" pos="7.29" lane="E4_0" slope="0.00"/>
        <vehicle id="ebike06" x="-66.68" y="27.58" angle="99.48" type="eBike" speed="1.53" pos="4.11" lane="E0_0" slope="0.00"/>
        <vehicle id="ebike07" x="-75.65" y="24.61" angle="209.97" type="eBike" speed="0.00" pos="2.10" lane="E4_0" slope="0.00"/>
    </timestep>
    <timestep time="12.50">
        <vehicle id="ebike01" x="-9.53" y="18.04" angle="99.48" type="eBike" speed="9.17" pos="62.05" lane="E0_0" slope="0.00"/>
        <vehicle id="ebike02" x="-61.69" y="-3.00" angle="102.87" type="eBike" speed="8.08" pos="17.20" lane="E11_0" slope="0.00"/>
        <vehicle id="ebike03" x="-38.84" y="22.93" angle="99.48" type="eBike" speed="6.62" pos="32.34" lane="E0_0" slope="0.00"/>
        <vehicle id="ebike04" x="-83.68" y="9.59" angle="203.72" type="eBike" speed="4.72" pos="5.06" lane=":Node5_0_0" slope="0.00"/>
        <vehicle id="ebike05" x="-79.12" y="18.59" angle="209.97" type="eBike" speed="3.51" pos="9.05" lane="E4_0" slope="0.00"/>
        <vehicle id="ebike06" x="-65.75" y="27.43" angle="99.48" type="eBike" speed="1.88" pos="5.05" lane="E0_0" slope="0.00"/>
        <vehicle id="ebike07" x="-75.77" y="24.39" angle="209.97" type="eBike" speed="0.50" pos="2.35" lane="E4_0" slope="0.00"/>
    </timestep>
    <timestep time="13.00">
        <vehicle id="ebike01" x="-4.81" y="17.25" angle="99.48" type="eBike" speed="9.56" pos="66.83" lane="E0_0" slope="0.00"/>
        <vehicle id="ebike02" x="-57.49" y="-3.96" angle="102.87" type="eBike" speed="8.63" pos="21.51" lane="E11_0" slope="0.00"/>
        <vehicle id="ebike03" x="-35.43" y="22.36" angle="99.48" type="eBike" speed="6.90" pos="35.79" lane="E0_0" slope="0.00"/>
        <vehicle id="ebike04" x="-83.97" y="7.12" angle="183.22" type="eBike" speed="5.01" pos="7.57" lane=":Node5_0_0" slope="0.00"/>
        <vehicle id="ebike05" x="-80.09" y="16.90" angle="209.97" type="eBike" speed="3.90" pos="11.00" lane="E4_0" slope="0.00"/>
        <vehicle id="ebike06" x="-64.60" y="27.24" angle="99.48" type="eBike" speed="2.34" pos="6.22" lane="E0_0" slope="0.00"/>
        <vehicle id="ebike07" x="-76.04" y="23.94" angle="209.97" type="eBike" speed="1.06" pos="2.88" lane="E4_0" slope="0.00"/>
    </timestep>
    <timestep time="13.50">
        <vehicle id="ebike01" x="0.01" y="16.54" angle="97.05" type="eBike" speed="9.74" pos="2.75" lane=":Node2_3_0" slope="0.00"/>
        <vehicle id="ebike02" x="-53.18" y="-4.95" angle="102.87" type="eBike" speed="8.84" pos="25.93" lane="E11_0" slope="0.00"/>
        <vehicle id="ebike03" x="-31.94" y="21.78" angle="99.48" type="eBike" speed="7.07" pos="39.32" lane="E0_0" slope="0.00"/>
        <vehicle id="ebike04" x="-83.60" y="4.55" angle="167.66" type="eBike" speed="5.42" pos="10.28" lane=":Node5_0_0" slope="0.00"/>
        <vehicle id="ebike05" x="-81.05" y="15.24" angle="209.97" type="eBike" speed="3.83" pos="12.91" lane="E4_0" slope="0.00"/>
        <vehicle id="ebike06" x="-63.17" y="27.00" angle="99.48" type="eBike" speed="2.90" pos="7.67" lane="E0_0" slope="0.00"/>
        <vehicle id="ebike07" x="-76.36" y="23.38" angle="209.97" type="eBike" speed="1.29" pos="3.52" lane="E4_0" slope="0.00"/>
    </timestep>
    <timestep time="14.00">
        <vehicle id="ebike01" x="4.88" y="17.30" angle="77.68" type="eBike" speed="9.90" pos="1.23" lane="E1_0" slope="0.00"/>
        <vehicle id="ebike02" x="-48.65" y="-5.98" angle="102.87" type="eBike" speed="9.30" pos="30.58" lane="E11_0" slope="0.00"/>
        <vehicle id="ebike03" x="-28.25" y="21.16" angle="99.48" type="eBike" speed="7.50" pos="43.07" lane="E0_0" slope="0.00"/>
        <vehicle id="ebike04" x="-81.76" y="2.27" angle="137.83" type="eBike" speed="6.02" pos="0.17" lane=":Node5_2_0" slope="0.00"/>
        <vehicle id="ebike05" x="-81.54" y="14.39" angle="209.97" type="eBike" speed="1.96" pos="13.89" lane="E4_0" slope="0.00"/>
        <vehicle id="ebike06" x="-61.55" y="26.73" angle="99.48" type="eBike" speed="3.28" pos="9.31" lane="E0_0" slope="0.00"/>
        <vehicle id="ebike07" x="-76.81" y="22.60" angle="209.97" type="eBike" speed="1.79" pos="4.42" lane="E4_0" slope="0.00"/>
    </timestep>
    <timestep time="14.50">
        <vehicle id="ebike01" x="9.86" y="18.42" angle="77.34" type="eBike" speed="10.19" pos="6.33" lane="E1_0" slope="0.00"/>
        <vehicle id="ebike02" x="-44.00" y="-7.04" angle="102.87" type="eBike" speed="9.54" pos="35.35" lane="E11_0" slope="0.00"/>
        <vehicle id="ebike03" x="-24.30" y="20.50" angle="99.48" type="eBike" speed="8.00" pos="47.07" lane="E0_0" slope="0.00"/>
        <vehicle id="ebike04" x="-78.74" y="0.95" angle="113.64" type="eBike" speed="6.59" pos="3.46" lane=":Node5_2_0" slope="0.00"/>
        <vehicle id="ebike05" x="-81.63" y="14.24" angle="209.97" type="eBike" speed="0.35" pos="14.07" lane="E4_0" slope="0.00"/>
        <vehicle id="ebike06" x="-59.73" y="26.42" angle="99.48" type="eBike" speed="3.70" pos="11.16" lane="E0_0" slope="0.00"/>
        <vehicle id="ebike07" x="-77.34" y="21.69" angle="209.97" type="eBike" speed="2.12" pos="5.47" lane="E4_0" slope="0.00"/>
    </timestep>
    <timestep time="15.00">
        <vehicle id="ebike01" x="15.10" y="19.59" angle="77.34" type="eBike" speed="10.75" pos="11.70" lane="E1_0" slope="0.00"/>
        <vehicle id="ebike02" x="-39.11" y="-8.16" angle="102.87" type="eBike" speed="10.02" pos="40.37" lane="E11_0" slope="0.00"/>
        <vehicle id="ebike03" x="-20.28" y="19.83" angle="99.48" type="eBike" speed="8.15" pos="51.15" lane="E0_0" slope="0.00"/>
        <vehicle id="ebike04" x="-75.29" y="0.11" angle="102.87" type="eBike" speed="7.09" pos="3.25" lane="E11_0" slope="0.00"/>
        <vehicle id="ebike05" x="-81.64" y="14.23" angle="209.97" type="eBike" speed="0.03" pos="14.08" lane="E4_0" slope="0.00"/>
        <vehicle id="ebike06" x="-57.73" y="26.09" angle="99.48" type="eBike" speed="4.05" pos="13.18" lane="E0_0" slope="0.00"/>
        <vehicle id="ebike07" x="-77.89" y="20.72" angle="209.97" type="eBike" speed="2.24" pos="6.59" lane="E4_0" slope="0.00"/>
        <vehicle id="erickshaw02" x="-76.25" y="23.57" angle="209.97" type="eRickshaw" speed="0.00" pos="3.30" lane="E4_0" slope="0.00"/>
    </timestep>
    <timestep time="15.50">
        <vehicle id="ebike01" x="20.52" y="20.81" angle="77.34" type="eBike" speed="11.11" pos="17.26" lane="E1_0" slope="0.00"/>
        <vehicle id="ebike02" x="-33.97" y="-9.34" angle="102.87" type="eBike" speed="10.56" pos="45.64" lane="E11_0" slope="0.00"/>
        <vehicle id="ebike03" x="-16.05" y="19.13" angle="99.48" type="eBike" speed="8.58" pos="55.44" lane="E0_0" slope="0.00"/>
        <vehicle id="ebike04" x="-71.55" y="-0.75" angle="102.87" type="eBike" speed="7.69" pos="7.09" lane="E11_0" slope="0.00"/>
        <vehicle id="ebike05" x="-81.64" y="14.22" angle="209.97" type="eBike" speed="0.01" pos="14.09" lane="E4_0" slope="0.00"/>
        <vehicle id="ebike06" x="-55.59" y="25.73" angle="99.48" type="eBike" speed="4.33" pos="15.35" lane="E0_0" slope="0.00"/>
        <vehicle id="ebike07" x="-78.53" y="19.62" angle="209.97" type="eBike" speed="2.53" pos="7.86" lane="E4_0" slope="0.00"/>
        <vehicle id="erickshaw02" x="-76.30" y="23.48" angle="209.97" type="eRickshaw" speed="0.20" pos="3.40" lane="E4_0" slope="0.00"/>
    </timestep>
    <timestep time="16.00">
        <vehicle id="ebike01" x="26.20" y="22.09" angle="77.34" type="eBike" speed="11.65" pos="23.08" lane="E1_0" slope="0.00"/>
        <vehicle id="ebike02" x="-29.49" y="-10.36" angle="102.87" type="eBike" speed="9.18" pos="50.23" lane="E11_0" slope="0.00"/>
        <vehicle id="ebike03" x="-11.62" y="18.39" angle="99.48" type="eBike" speed="8.99" pos="59.93" lane="E0_0" slope="0.00"/>
        <vehicle id="ebike04" x="-67.65" y="-1.64" angle="102.87" type="eBike" speed="7.99" pos="11.09" lane="E11_0" slope="0.00"/>
        <vehicle id="ebike05" x="-81.64" y="14.22" angle="209.97" type="eBike" speed="0.00" pos="14.09" lane="E4_0" slope="0.00"/>
        <vehicle id="ebike06" x="-53.19" y="25.33" angle="99.48" type="eBike" speed="4.88" pos="17.79" lane="E0_0" slope="0.00"/>
        <vehicle id="ebike07" x="-79.20" y="18.46" angle="209.97" type="eBike" speed="2.68" pos="9.20" lane="E4_0" slope="0.00"/>
        <vehicle id="erickshaw02" x="-76.42" y="23.27" angle="209.97" type="eRickshaw" speed="0.48" pos="3.64" lane="E4_0" slope="0.00"/>
    </timestep>
    <timestep time="16.50">
        <vehicle id="ebike01" x="31.96" y="23.38" angle="77.34" type="eBike" speed="11.81" pos="28.99" lane="E1_0" slope="0.00"/>
        <vehicle id="ebike02" x="-26.11" y="-11.13" angle="102.87" type="eBike" speed="6.93" pos="53.70" lane="E11_0" slope="0.00"/>
        <vehicle id="ebike03" x="-7.07" y="17.63" angle="99.48" type="eBike" speed="9.22" pos="64.54" lane="E0_0" slope="0.00"/>
        <vehicle id="ebike04" x="-63.49" y="-2.59" angle="102.87" type="eBike" speed="8.54" pos="15.35" lane="E11_0" slope="0.00"/>
        <vehicle id="ebike05" x="-81.64" y="14.22" angle="209.97" type="eBike" speed="0.00" pos="14.09" lane="E4_0" slope="0.00"/>
        <vehicle id="ebike06" x="-50.49" y="24.88" angle="99.48" type="eBike" speed="5.47" pos="20.52" lane="E0_0" slope="0.00"/>
        <vehicle id="ebike07" x="-79.76" y="17.49" angle="209.97" type="eBike" speed="2.24" pos="10.32" lane="E4_0" slope="0.00"/>
        <vehicle id="erickshaw02" x="-76.60" y="22.96" angle="209.97" type="eRickshaw" speed="0.72" pos="4.00" lane="E4_0" slope="0.00"/>
    </timestep>
    <timestep time="17.00">
        <vehicle id="ebike01" x="37.81" y="24.70" angle="77.34" type="eBike" speed="11.97" pos="34.97" lane="E1_0" slope="0.00"/>
        <vehicle id="ebike02" x="-23.73" y="-11.67" angle="102.87" type="eBike" speed="4.88" pos="56.14" lane="E11_0" slope="0.00"/>
        <vehicle id="ebike03" x="-2.46" y="16.86" angle="99.42" type="eBike" speed="9.35" pos="0.26" lane=":Node2_3_0" slope="0.00"/>
        <vehicle id="ebike04" x="-59.08" y="-3.60" angle="102.87" type="eBike" speed="9.06" pos="19.88" lane="E11_0" slope="0.00"/>
        <vehicle id="ebike05" x="-81.64" y="14.22" angle="209.97" type="eBike" speed="0.00" pos="14.09" lane="E4_0" slope="0.00"/>
        <vehicle id="ebike06" x="-47.51" y="24.38" angle="99.48" type="eBike" speed="6.03" pos="23.54" lane="E0_0" slope="0.00"/>
        <vehicle id="ebike07" x="-80.10" y="16.89" angle="209.97" type="eBike" speed="1.38" pos="11.01" lane="E4_0" slope="0.00"/>
        <vehicle id="erickshaw02" x="-76.85" y="22.53" angle="209.97" type="eRickshaw" speed="0.99" pos="4.50" lane="E4_0" slope="0.00"/>
    </timestep>
    <timestep time="17.50">
        <vehicle id="ebike01" x="43.74" y="26.03" angle="77.34" type="eBike" speed="12.17" pos="41.06" lane="E1_0" slope="0.00"/>
        <vehicle id="ebike02" x="-22.45" y="-11.97" angle="102.87" type="eBike" speed="2.63" pos="57.45" lane="E11_0" slope="0.00"/>
        <vehicle id="ebike03" x="2.37" y="16.76" angle="82.82" type="eBike" speed="9.74" pos="5.14" lane=":Node2_3_0" slope="0.00"/>
        <vehicle id="ebike04" x="-54.49" y="-4.65" angle="102.87" type="eBike" speed="9.40" pos="24.58" lane="E11_0" slope="0.00"/>
        <vehicle id="ebike05" x="-81.64" y="14.22" angle="209.97" type="eBike" speed="0.00" pos="14.09" lane="E4_0" slope="0.00"/>
        <vehicle id="ebike06" x="-44.32" y="23.85" angle="99.48" type="eBike" speed="6.48" pos="26.78" lane="E0_0" slope="0.00"/>
        <vehicle id="ebike07" x="-80.25" y="16.63" angle="209.97" type="eBike" speed="0.61" pos="11.31" lane="E4_0" slope="0.00"/>
        <vehicle id="erickshaw02" x="-77.16" y="21.99" angle="209.97" type="eRickshaw" speed="1.24" pos="5.12" lane="E4_0" slope="0.00"/>
    </timestep>
    <timestep time="18.00">
        <vehicle id="ebike01" x="49.95" y="27.42" angle="77.34" type="eBike" speed="12.72" pos="47.42" lane="E1_0" slope="0.00"/>
        <vehicle id="ebike02" x="-22.16" y="-12.03" angle="102.87" type="eBike" speed="0.60" pos="57.75" lane="E11_0" slope="0.00"/>
        <vehicle id="ebike03" x="7.25" y="17.83" angle="77.34" type="eBike" speed="9.99" pos="3.66" lane="E1_0" slope="0.00"/>
        <vehicle id="ebike04" x="-49.82" y="-5.71" angle="102.87" type="eBike" speed="9.59" pos="29.38" lane="E11_0" slope="0.00"/>
        <vehicle id="ebike05" x="-81.64" y="14.22" angle="209.97" type="eBike" speed="0.00" pos="14.09" lane="E4_0" slope="0.00"/>
        <vehicle id="ebike06" x="-41.01" y="23.30" angle="99.48" type="eBike" speed="6.71" pos="30.13" lane="E0_0" slope="0.00"/>
        <vehicle id="ebike07" x="-80.32" y="16.51" angle="209.97" type="eBike" speed="0.28" pos="11.45" lane="E4_0" slope="0.00"/>
        <vehicle id="erickshaw02" x="-77.53" y="21.35" angle="209.97" type="eRickshaw" speed="1.49" pos="5.86" lane="E4_0" slope="0.00"/>
    </timestep>
    <timestep time="18.50">
        <vehicle id="ebike01" x="55.05" y="28.57" angle="77.34" type="eBike" speed="10.47" pos="52.65" lane="E1_0" slope="0.00"/>
        <vehicle id="ebike02" x="-22.11" y="-12.04" angle="102.87" type="eBike" speed="0.10" pos="57.80" lane="E11_0" slope="0.00"/>
        <vehicle id="ebike03" x="12.42" y="18.99" angle="77.34" type="eBike" speed="10.59" pos="8.95" lane="E1_0" slope="0.00"/>
        <vehicle id="ebike04" x="-44.87" y="-6.84" angle="102.87" type="eBike" speed="10.17" pos="34.46" lane="E11_0" slope="0.00"/>
        <vehicle id="ebike05" x="-81.64" y="14.22" angle="209.97" type="eBike" speed="0.00" pos="14.09" lane="E4_0" slope="0.00"/>
        <vehicle id="ebike06" x="-37.55" y="22.72" angle="99.48" type="eBike" speed="7.01" pos="33.64" lane="E0_0" slope="0.00"/>
        <vehicle id="ebike07" x="-80.36" y="16.44" angle="209.97" type="eBike" speed="0.15" pos="11.53" lane="E4_0" slope="0.00"/>
        <vehicle id="erickshaw02" x="-77.83" y="20.83" angle="209.97" type="eRickshaw" speed="1.20" pos="6.47" lane="E4_0" slope="0.00"/>
    </timestep>
    <timestep time="19.00">
        <vehicle id="ebike01" x="59.13" y="29.49" angle="77.34" type="eBike" speed="8.35" pos="56.83" lane="E1_0" slope="0.00"/>
        <vehicle id="ebike02" x="-22.10" y="-12.05" angle="102.87" type="eBike" speed="0.03" pos="57.82" lane="E11_0" slope="0.00"/>
        <vehicle id="ebike03" x="17.69" y="20.18" angle="77.34" type="eBike" speed="10.82" pos="14.36" lane="E1_0" slope="0.00"/>
        <vehicle id="ebike04" x="-39.74" y="-8.02" angle="102.87" type="eBike" speed="10.51" pos="39.72" lane="E11_0" slope="0.00"/>
        <vehicle id="ebike05" x="-81.64" y="14.22" angle="209.97" type="eBike" speed="0.00" pos="14.09" lane="E4_0" slope="0.00"/>
        <vehicle id="ebike06" x="-33.94" y="22.12" angle="99.48" type="eBike" speed="7.31" pos="37.29" lane="E0_0" slope="0.00"/>
        <vehicle id="ebike07" x="-80.38" y="16.41" angle="209.97" type="eBike" speed="0.07" pos="11.56" lane="E4_0" slope="0.00"/>
        <vehicle id="erickshaw02" x="-78.09" y="20.38" angle="209.97" type="eRickshaw" speed="1.02" pos="6.98" lane="E4_0" slope="0.00"/>
    </timestep>
    <timestep time="19.50">
        <vehicle id="ebike01" x="62.11" y="30.15" angle="77.34" type="eBike" speed="6.10" pos="59.88" lane="E1_0" slope="0.00"/>
        <vehicle id="ebike02" x="-22.10" y="-12.05" angle="102.87" type="eBike" speed="0.00" pos="57.82" lane="E11_0" slope="0.00"/>