<?xml version="1.0" encoding="UTF-8"?>

<!-- generated on 2025-11-11 05:53:17 by Eclipse SUMO GUI Version 1.22.0
<sumoConfiguration xmlns:xsi="http://www.w3.org/2001/XMLSchema-instance" xsi:noNamespaceSchemaLocation="http://sumo.dlr.de/xsd/sumoConfiguration.xsd">

    <input>
        <net-file value="D:\JUST\Thesis\Implementation\New2 ( with charging staton )\MOD3\Test1.net.xml"/>
        <route-files value="D:\JUST\Thesis\Implementation\New2 ( with charging staton )\MOD3\Test1.rou.xml"/>
        <additional-files value="D:\JUST\Thesis\Implementation\New2 ( with charging staton )\MOD3\Test1.add.xml"/>
    </input>

    <output>
        <emission-output value="D:\JUST\Thesis\Implementation\New2 ( with charging staton )\MOD3\emissions.xml"/>
        <battery-output value="D:\JUST\Thesis\Implementation\New2 ( with charging staton )\MOD3\battery.xml"/>
        <chargingstations-output value="D:\JUST\Thesis\Implementation\New2 ( with charging staton )\MOD3\chargingstations.xml"/>
        <fcd-output value="D:\JUST\Thesis\Implementation\New2 ( with charging staton )\MOD3\fcd.xml"/>
        <summary-output value="D:\JUST\Thesis\Implementation\New2 ( with charging staton )\MOD3\summary.xml"/>
        <tripinfo-output value="D:\JUST\Thesis\Implementation\New2 ( with charging staton )\MOD3\tripinfo.xml"/>
    </output>

    <time>
        <begin value="0"/>
        <end value="200"/>
        <step-length value="0.5"/>
    </time>

    <processing>
        <lateral-resolution value="0.8"/>
        <ignore-junction-blocker value="5"/>
        <ignore-route-errors value="true"/>
        <collision.check-junctions value="true"/>
    </processing>

    <report>
        <verbose value="true"/>
        <duration-log.statistics value="true"/>
    </report>

    <emissions>
        <device.emissions.probability value="1"/>
    </emissions>

    <battery>
        <device.battery.probability value="1"/>
    </battery>

</sumoConfiguration>
-->

<emission-export xmlns:xsi="http://www.w3.org/2001/XMLSchema-instance" xsi:noNamespaceSchemaLocation="http://sumo.dlr.de/xsd/emission_file.xsd">
    <timestep time="0.00">
        <vehicle id="easybike_01" eclass="Energy/default" CO2="0.00" CO="0.00" HC="0.00" NOx="0.00" PMx="0.00" fuel="0.00" electricity="0.03" noise="55.94" route="route1_direct" type="easyBike" waiting="0.00" lane="E0_0" pos="2.30" speed="0.00" angle="102.22" x="-927.27" y="592.79"/>
    </timestep>
    <timestep time="0.50">
        <vehicle id="easybike_01" eclass="Energy/default" CO2="0.00" CO="0.00" HC="0.00" NOx="0.00" PMx="0.00" fuel="0.00" electricity="0.22" noise="61.09" route="route1_direct" type="easyBike" waiting="0.00" lane="E0_0" pos="2.58" speed="0.56" angle="102.22" x="-926.98" y="592.73"/>
    </timestep>
    <timestep time="1.00">
        <vehicle id="easybike_01" eclass="Energy/default" CO2="0.00" CO="0.00" HC="0.00" NOx="0.00" PMx="0.00" fuel="0.00" electricity="0.17" noise="57.53" route="route1_direct" type="easyBike" waiting="0.00" lane="E0_0" pos="2.94" speed="0.71" angle="102.22" x="-926.61" y="592.65"/>
    </timestep>
    <timestep time="1.50">
        <vehicle id="easybike_01" eclass="Energy/default" CO2="0.00" CO="0.00" HC="0.00" NOx="0.00" PMx="0.00" fuel="0.00" electricity="0.35" noise="58.96" route="route1_direct" type="easyBike" waiting="0.00" lane="E0_0" pos="3.44" speed="1.01" angle="102.22" x="-926.09" y="592.54"/>
    </timestep>
    <timestep time="2.00">
        <vehicle id="easybike_01" eclass="Energy/default" CO2="0.00" CO="0.00" HC="0.00" NOx="0.00" PMx="0.00" fuel="0.00" electricity="0.63" noise="60.13" route="route1_direct" type="easyBike" waiting="0.00" lane="E0_0" pos="4.15" speed="1.42" angle="102.22" x="-925.35" y="592.38"/>
        <vehicle id="easybike_02" eclass="Energy/default" CO2="0.00" CO="0.00" HC="0.00" NOx="0.00" PMx="0.00" fuel="0.00" electricity="0.03" noise="55.94" route="route2_via_n5n6" type="easyBike" waiting="0.00" lane="E4_0" pos="2.30" speed="0.00" angle="170.98" x="-932.43" y="587.99"/>
    </timestep>
    <timestep time="2.50">
        <vehicle id="easybike_01" eclass="Energy/default" CO2="0.00" CO="0.00" HC="0.00" NOx="0.00" PMx="0.00" fuel="0.00" electricity="0.43" noise="58.33" route="route1_direct" type="easyBike" waiting="0.00" lane="E0_0" pos="4.97" speed="1.62" angle="102.22" x="-924.51" y="592.20"/>
        <vehicle id="easybike_02" eclass="Energy/default" CO2="0.00" CO="0.00" HC="0.00" NOx="0.00" PMx="0.00" fuel="0.00" electricity="0.23" noise="61.22" route="route2_via_n5n6" type="easyBike" waiting="0.00" lane="E4_0" pos="2.59" speed="0.58" angle="170.98" x="-932.38" y="587.70"/>
    </timestep>
    <timestep time="3.00">
        <vehicle id="easybike_01" eclass="Energy/default" CO2="0.00" CO="0.00" HC="0.00" NOx="0.00" PMx="0.00" fuel="0.00" electricity="1.33" noise="61.94" route="route1_direct" type="easyBike" waiting="0.00" lane="E0_0" pos="6.07" speed="2.21" angle="102.22" x="-923.37" y="591.95"/>
        <vehicle id="easybike_02" eclass="Energy/default" CO2="0.00" CO="0.00" HC="0.00" NOx="0.00" PMx="0.00" fuel="0.00" electricity="0.22" noise="58.09" route="route2_via_n5n6" type="easyBike" waiting="0.00" lane="E4_0" pos="2.98" speed="0.79" angle="170.98" x="-932.32" y="587.30"/>
    </timestep>
    <timestep time="3.50">
        <vehicle id="easybike_01" eclass="Energy/default" CO2="0.00" CO="0.00" HC="0.00" NOx="0.00" PMx="0.00" fuel="0.00" electricity="0.45" noise="57.97" route="route1_direct" type="easyBike" waiting="0.00" lane="E0_0" pos="7.23" speed="2.33" angle="102.22" x="-922.16" y="591.69"/>
        <vehicle id="easybike_02" eclass="Energy/default" CO2="0.00" CO="0.00" HC="0.00" NOx="0.00" PMx="0.00" fuel="0.00" electricity="0.50" noise="59.89" route="route2_via_n5n6" type="easyBike" waiting="0.00" lane="E4_0" pos="3.57" speed="1.18" angle="170.98" x="-932.22" y="586.69"/>
    </timestep>
    <timestep time="4.00">
        <vehicle id="easybike_01" eclass="Energy/default" CO2="0.00" CO="0.00" HC="0.00" NOx="0.00" PMx="0.00" fuel="0.00" electricity="1.69" noise="61.91" route="route1_direct" type="easyBike" waiting="0.00" lane="E0_0" pos="8.67" speed="2.88" angle="102.22" x="-920.68" y="591.37"/>
        <vehicle id="easybike_02" eclass="Energy/default" CO2="0.00" CO="0.00" HC="0.00" NOx="0.00" PMx="0.00" fuel="0.00" electricity="0.63" noise="59.73" route="route2_via_n5n6" type="easyBike" waiting="0.00" lane="E4_0" pos="4.35" speed="1.55" angle="170.98" x="-932.10" y="585.91"/>
    </timestep>
    <timestep time="4.50">
        <vehicle id="easybike_01" eclass="Energy/default" CO2="0.00" CO="0.00" HC="0.00" NOx="0.00" PMx="0.00" fuel="0.00" electricity="1.29" noise="60.24" route="route1_direct" type="easyBike" waiting="0.00" lane="E0_0" pos="10.28" speed="3.22" angle="102.22" x="-919.01" y="591.01"/>
        <vehicle id="easybike_02" eclass="Energy/default" CO2="0.00" CO="0.00" HC="0.00" NOx="0.00" PMx="0.00" fuel="0.00" electricity="0.86" noise="60.16" route="route2_via_n5n6" type="easyBike" waiting="0.00" lane="E4_0" pos="5.32" speed="1.94" angle="170.98" x="-931.94" y="584.92"/>
        <vehicle id="easybike_03" eclass="Energy/default" CO2="0.00" CO="0.00" HC="0.00" NOx="0.00" PMx="0.00" fuel="0.00" electricity="0.03" noise="55.94" route="route3_southern" type="easyBike" waiting="0.00" lane="E4_0" pos="2.30" speed="0.00" angle="170.98" x="-932.43" y="587.99"/>
    </timestep>
    <timestep time="5.00">
        <vehicle id="easybike_01" eclass="Energy/default" CO2="0.00" CO="0.00" HC="0.00" NOx="0.00" PMx="0.00" fuel="0.00" electricity="1.19" noise="59.82" route="route1_direct" type="easyBike" waiting="0.00" lane="E0_0" pos="12.03" speed="3.49" angle="102.22" x="-917.21" y="590.62"/>
        <vehicle id="easybike_02" eclass="Energy/default" CO2="0.00" CO="0.00" HC="0.00" NOx="0.00" PMx="0.00" fuel="0.00" electricity="0.73" noise="59.17" route="route2_via_n5n6" type="easyBike" waiting="0.00" lane="E4_0" pos="6.42" speed="2.21" angle="170.98" x="-931.76" y="583.80"/>
        <vehicle id="easybike_03" eclass="Energy/default" CO2="0.00" CO="0.00" HC="0.00" NOx="0.00" PMx="0.00" fuel="0.00" electricity="0.10" noise="58.81" route="route3_southern" type="easyBike" waiting="0.00" lane="E4_0" pos="2.46" speed="0.31" angle="170.98" x="-932.40" y="587.83"/>
    </timestep>
    <timestep time="5.50">
        <vehicle id="easybike_01" eclass="Energy/default" CO2="0.00" CO="0.00" HC="0.00" NOx="0.00" PMx="0.00" fuel="0.00" electricity="1.98" noise="61.48" route="route1_direct" type="easyBike" waiting="0.00" lane="E0_0" pos="14.00" speed="3.93" angle="102.22" x="-915.17" y="590.17"/>
        <vehicle id="easybike_02" eclass="Energy/default" CO2="0.00" CO="0.00" HC="0.00" NOx="0.00" PMx="0.00" fuel="0.00" electricity="0.54" noise="58.31" route="route2_via_n5n6" type="easyBike" waiting="0.00" lane="E4_0" pos="7.60" speed="2.37" angle="170.98" x="-931.57" y="582.59"/>
        <vehicle id="easybike_03" eclass="Energy/default" CO2="0.00" CO="0.00" HC="0.00" NOx="0.00" PMx="0.00" fuel="0.00" electricity="0.37" noise="60.70" route="route3_southern" type="easyBike" waiting="0.00" lane="E4_0" pos="2.87" speed="0.82" angle="170.98" x="-932.34" y="587.41"/>
    </timestep>
    <timestep time="6.00">
        <vehicle id="easybike_01" eclass="Energy/default" CO2="0.00" CO="0.00" HC="0.00" NOx="0.00" PMx="0.00" fuel="0.00" electricity="1.92" noise="61.10" route="route1_direct" type="easyBike" waiting="0.00" lane="E0_0" pos="16.15" speed="4.31" angle="102.22" x="-912.94" y="589.69"/>
        <vehicle id="easybike_02" eclass="Energy/default" CO2="0.00" CO="0.00" HC="0.00" NOx="0.00" PMx="0.00" fuel="0.00" electricity="0.76" noise="59.01" route="route2_via_n5n6" type="easyBike" waiting="0.00" lane="E4_0" pos="8.90" speed="2.60" angle="170.98" x="-931.36" y="581.27"/>
        <vehicle id="easybike_03" eclass="Energy/default" CO2="0.00" CO="0.00" HC="0.00" NOx="0.00" PMx="0.00" fuel="0.00" electricity="0.76" noise="61.43" route="route3_southern" type="easyBike" waiting="0.00" lane="E4_0" pos="3.56" speed="1.38" angle="170.98" x="-932.23" y="586.71"/>
    </timestep>
    <timestep time="6.50">
        <vehicle id="easybike_01" eclass="Energy/default" CO2="0.00" CO="0.00" HC="0.00" NOx="0.00" PMx="0.00" fuel="0.00" electricity="1.07" noise="59.44" route="route1_direct" type="easyBike" waiting="0.00" lane="E0_0" pos="18.39" speed="4.48" angle="102.22" x="-910.62" y="589.19"/>
        <vehicle id="easybike_02" eclass="Energy/default" CO2="0.00" CO="0.00" HC="0.00" NOx="0.00" PMx="0.00" fuel="0.00" electricity="1.41" noise="60.78" route="route2_via_n5n6" type="easyBike" waiting="0.00" lane="E4_0" pos="10.41" speed="3.01" angle="170.98" x="-931.12" y="579.74"/>
        <vehicle id="easybike_03" eclass="Energy/default" CO2="0.00" CO="0.00" HC="0.00" NOx="0.00" PMx="0.00" fuel="0.00" electricity="1.15" noise="61.77" route="route3_southern" type="easyBike" waiting="0.00" lane="E4_0" pos="4.54" speed="1.96" angle="170.98" x="-932.07" y="585.71"/>
    </timestep>
    <timestep time="7.00">
        <vehicle id="easybike_01" eclass="Energy/default" CO2="0.00" CO="0.00" HC="0.00" NOx="0.00" PMx="0.00" fuel="0.00" electricity="3.29" noise="63.26" route="route1_direct" type="easyBike" waiting="0.00" lane="E0_0" pos="20.93" speed="5.07" angle="102.22" x="-907.99" y="588.62"/>
        <vehicle id="easybike_02" eclass="Energy/default" CO2="0.00" CO="0.00" HC="0.00" NOx="0.00" PMx="0.00" fuel="0.00" electricity="1.00" noise="59.42" route="route2_via_n5n6" type="easyBike" waiting="0.00" lane="E4_0" pos="12.03" speed="3.25" angle="170.98" x="-930.86" y="578.09"/>
        <vehicle id="easybike_03" eclass="Energy/default" CO2="0.00" CO="0.00" HC="0.00" NOx="0.00" PMx="0.00" fuel="0.00" electricity="1.21" noise="60.92" route="route3_southern" type="easyBike" waiting="0.00" lane="E4_0" pos="5.74" speed="2.42" angle="170.98" x="-931.87" y="584.48"/>
        <vehicle id="easybike_04" eclass="Energy/default" CO2="0.00" CO="0.00" HC="0.00" NOx="0.00" PMx="0.00" fuel="0.00" electricity="0.03" noise="55.94" route="route4_long_via_n9n10" type="easyBike" waiting="0.00" lane="E4_0" pos="2.30" speed="0.00" angle="170.98" x="-932.43" y="587.99"/>
    </timestep>
    <timestep time="7.50">
        <vehicle id="easybike_01" eclass="Energy/default" CO2="0.00" CO="0.00" HC="0.00" NOx="0.00" PMx="0.00" fuel="0.00" electricity="2.41" noise="61.63" route="route1_direct" type="easyBike" waiting="0.00" lane="E0_0" pos="23.65" speed="5.45" angle="102.22" x="-905.17" y="588.01"/>
        <vehicle id="easybike_02" eclass="Energy/default" CO2="0.00" CO="0.00" HC="0.00" NOx="0.00" PMx="0.00" fuel="0.00" electricity="1.44" noise="60.40" route="route2_via_n5n6" type="easyBike" waiting="0.00" lane="E4_0" pos="13.82" speed="3.59" angle="170.98" x="-930.57" y="576.26"/>
        <vehicle id="easybike_03" eclass="Energy/default" CO2="0.00" CO="0.00" HC="0.00" NOx="0.00" PMx="0.00" fuel="0.00" electricity="0.88" noise="59.34" route="route3_southern" type="easyBike" waiting="0.00" lane="E4_0" pos="7.08" speed="2.68" angle="170.98" x="-931.66" y="583.12"/>
        <vehicle id="easybike_04" eclass="Energy/default" CO2="0.00" CO="0.00" HC="0.00" NOx="0.00" PMx="0.00" fuel="0.00" electricity="0.13" noise="59.62" route="route4_long_via_n9n10" type="easyBike" waiting="0.00" lane="E4_0" pos="2.50" speed="0.40" angle="170.98" x="-932.40" y="587.79"/>
    </timestep>
    <timestep time="8.00">
        <vehicle id="easybike_01" eclass="Energy/default" CO2="0.00" CO="0.00" HC="0.00" NOx="0.00" PMx="0.00" fuel="0.00" electricity="2.53" noise="61.75" route="route1_direct" type="easyBike" waiting="0.00" lane="E0_0" pos="26.56" speed="5.81" angle="102.22" x="-902.17" y="587.36"/>
        <vehicle id="easybike_02" eclass="Energy/default" CO2="0.00" CO="0.00" HC="0.00" NOx="0.00" PMx="0.00" fuel="0.00" electricity="1.33" noise="60.03" route="route2_via_n5n6" type="easyBike" waiting="0.00" lane="E4_0" pos="15.76" speed="3.86" angle="170.98" x="-930.25" y="574.30"/>
        <vehicle id="easybike_03" eclass="Energy/default" CO2="0.00" CO="0.00" HC="0.00" NOx="0.00" PMx="0.00" fuel="0.00" electricity="0.88" noise="59.22" route="route3_southern" type="easyBike" waiting="0.00" lane="E4_0" pos="8.54" speed="2.92" angle="170.98" x="-931.42" y="581.64"/>
        <vehicle id="easybike_04" eclass="Energy/default" CO2="0.00" CO="0.00" HC="0.00" NOx="0.00" PMx="0.00" fuel="0.00" electricity="0.52" noise="61.52" route="route4_long_via_n9n10" type="easyBike" waiting="0.00" lane="E4_0" pos="3.00" speed="0.99" angle="170.98" x="-932.32" y="587.28"/>
        <vehicle id="easybike_05" eclass="Energy/default" CO2="0.00" CO="0.00" HC="0.00" NOx="0.00" PMx="0.00" fuel="0.00" electricity="0.03" noise="55.94" route="route5_via_n11" type="easyBike" waiting="0.00" lane="E0_0" pos="2.30" speed="0.00" angle="102.22" x="-927.27" y="592.79"/>
    </timestep>
    <timestep time="8.50">
        <vehicle id="easybike_01" eclass="Energy/default" CO2="0.00" CO="0.00" HC="0.00" NOx="0.00" PMx="0.00" fuel="0.00" electricity="4.17" noise="63.86" route="route1_direct" type="easyBike" waiting="0.00" lane="E0_0" pos="29.76" speed="6.39" angle="102.22" x="-898.86" y="586.64"/>
        <vehicle id="easybike_02" eclass="Energy/default" CO2="0.00" CO="0.00" HC="0.00" NOx="0.00" PMx="0.00" fuel="0.00" electricity="2.20" noise="61.69" route="route2_via_n5n6" type="easyBike" waiting="0.00" lane="E4_0" pos="17.91" speed="4.31" angle="170.98" x="-929.91" y="572.10"/>
        <vehicle id="easybike_03" eclass="Energy/default" CO2="0.00" CO="0.00" HC="0.00" NOx="0.00" PMx="0.00" fuel="0.00" electricity="1.87" noise="61.68" route="route3_southern" type="easyBike" waiting="0.00" lane="E4_0" pos="10.25" speed="3.41" angle="170.98" x="-931.14" y="579.90"/>
        <vehicle id="easybike_04" eclass="Energy/default" CO2="0.00" CO="0.00" HC="0.00" NOx="0.00" PMx="0.00" fuel="0.00" electricity="0.34" noise="58.30" route="route4_long_via_n9n10" type="easyBike" waiting="0.00" lane="E4_0" pos="3.60" speed="1.21" angle="170.98" x="-932.22" y="586.67"/>
        <vehicle id="easybike_05" eclass="Energy/default" CO2="0.00" CO="0.00" HC="0.00" NOx="0.00" PMx="0.00" fuel="0.00" electricity="0.13" noise="59.53" route="route5_via_n11" type="easyBike" waiting="0.00" lane="E0_0" pos="2.50" speed="0.39" angle="102.22" x="-927.07" y="592.75"/>
    </timestep>
    <timestep time="9.00">
        <vehicle id="easybike_01" eclass="Energy/default" CO2="0.00" CO="0.00" HC="0.00" NOx="0.00" PMx="0.00" fuel="0.00" electricity="4.47" noise="64.04" route="route1_direct" type="easyBike" waiting="0.00" lane="E0_0" pos="33.24" speed="6.96" angle="102.22" x="-895.26" y="585.86"/>
        <vehicle id="easybike_02" eclass="Energy/default" CO2="0.00" CO="0.00" HC="0.00" NOx="0.00" PMx="0.00" fuel="0.00" electricity="2.15" noise="61.39" route="route2_via_n5n6" type="easyBike" waiting="0.00" lane="E4_0" pos="20.26" speed="4.70" angle="170.98" x="-929.53" y="569.71"/>
        <vehicle id="easybike_03" eclass="Energy/default" CO2="0.00" CO="0.00" HC="0.00" NOx="0.00" PMx="0.00" fuel="0.00" electricity="2.15" noise="61.88" route="route3_southern" type="easyBike" waiting="0.00" lane="E4_0" pos="12.20" speed="3.90" angle="170.98" x="-930.83" y="577.91"/>
        <vehicle id="easybike_04" eclass="Energy/default" CO2="0.00" CO="0.00" HC="0.00" NOx="0.00" PMx="0.00" fuel="0.00" electricity="0.26" noise="57.52" route="route4_long_via_n9n10" type="easyBike" waiting="0.00" lane="E4_0" pos="4.26" speed="1.33" angle="170.98" x="-932.11" y="585.99"/>
        <vehicle id="easybike_05" eclass="Energy/default" CO2="0.00" CO="0.00" HC="0.00" NOx="0.00" PMx="0.00" fuel="0.00" electricity="0.33" noise="59.90" route="route5_via_n11" type="easyBike" waiting="0.00" lane="E0_0" pos="2.90" speed="0.81" angle="102.22" x="-926.65" y="592.66"/>
    </timestep>
    <timestep time="9.50">
        <vehicle id="easybike_01" eclass="Energy/default" CO2="0.00" CO="0.00" HC="0.00" NOx="0.00" PMx="0.00" fuel="0.00" electricity="4.14" noise="63.57" route="route1_direct" type="easyBike" waiting="0.00" lane="E0_0" pos="36.96" speed="7.44" angle="102.22" x="-891.41" y="585.03"/>
        <vehicle id="easybike_02" eclass="Energy/default" CO2="0.00" CO="0.00" HC="0.00" NOx="0.00" PMx="0.00" fuel="0.00" electricity="3.34" noise="63.21" route="route2_via_n5n6" type="easyBike" waiting="0.00" lane="E4_0" pos="22.90" speed="5.27" angle="170.98" x="-929.10" y="567.02"/>
        <vehicle id="easybike_03" eclass="Energy/default" CO2="0.00" CO="0.00" HC="0.00" NOx="0.00" PMx="0.00" fuel="0.00" electricity="2.94" noise="63.08" route="route3_southern" type="easyBike" waiting="0.00" lane="E4_0" pos="14.45" speed="4.50" angle="170.98" x="-930.47" y="575.62"/>
        <vehicle id="easybike_04" eclass="Energy/default" CO2="0.00" CO="0.00" HC="0.00" NOx="0.00" PMx="0.00" fuel="0.00" electricity="1.06" noise="61.53" route="route4_long_via_n9n10" type="easyBike" waiting="0.00" lane="E4_0" pos="5.20" speed="1.88" angle="170.98" x="-931.96" y="585.03"/>
        <vehicle id="easybike_05" eclass="Energy/default" CO2="0.00" CO="0.00" HC="0.00" NOx="0.00" PMx="0.00" fuel="0.00" electricity="0.72" noise="61.27" route="route5_via_n11" type="easyBike" waiting="0.00" lane="E0_0" pos="3.58" speed="1.35" angle="102.22" x="-925.95" y="592.51"/>
    </timestep>
    <timestep time="10.00">
        <vehicle id="easybike_01" eclass="Energy/default" CO2="0.00" CO="0.00" HC="0.00" NOx="0.00" PMx="0.00" fuel="0.00" electricity="4.81" noise="64.22" route="route1_direct" type="easyBike" waiting="0.00" lane="E0_0" pos="40.95" speed="7.97" angle="102.22" x="-887.28" y="584.14"/>
        <vehicle id="easybike_02" eclass="Energy/default" CO2="0.00" CO="0.00" HC="0.00" NOx="0.00" PMx="0.00" fuel="0.00" electricity="2.64" noise="61.93" route="route2_via_n5n6" type="easyBike" waiting="0.00" lane="E4_0" pos="25.73" speed="5.67" angle="170.98" x="-928.64" y="564.14"/>
        <vehicle id="easybike_03" eclass="Energy/default" CO2="0.00" CO="0.00" HC="0.00" NOx="0.00" PMx="0.00" fuel="0.00" electricity="2.27" noise="61.54" route="route3_southern" type="easyBike" waiting="0.00" lane="E4_0" pos="16.90" speed="4.90" angle="170.98" x="-930.07" y="573.13"/>
        <vehicle id="easybike_04" eclass="Energy/default" CO2="0.00" CO="0.00" HC="0.00" NOx="0.00" PMx="0.00" fuel="0.00" electricity="1.44" noise="61.82" route="route4_long_via_n9n10" type="easyBike" waiting="0.00" lane="E4_0" pos="6.42" speed="2.44" angle="170.98" x="-931.76" y="583.79"/>
        <vehicle id="easybike_05" eclass="Energy/default" CO2="0.00" CO="0.00" HC="0.00" NOx="0.00" PMx="0.00" fuel="0.00" electricity="0.77" noise="60.11" route="route5_via_n11" type="easyBike" waiting="0.00" lane="E0_0" pos="4.45" speed="1.75" angle="102.22" x="-925.04" y="592.31"/>
        <vehicle id="easybike_06" eclass="Energy/default" CO2="0.00" CO="0.00" HC="0.00" NOx="0.00" PMx="0.00" fuel="0.00" electricity="0.03" noise="55.94" route="route6_via_n10n11" type="easyBike" waiting="0.00" lane="E4_0" pos="2.30" speed="0.00" angle="170.98" x="-932.43" y="587.99"/>
    </timestep>
    <timestep time="10.50">
        <vehicle id="easybike_01" eclass="Energy/default" CO2="0.00" CO="0.00" HC="0.00" NOx="0.00" PMx="0.00" fuel="0.00" electricity="2.36" noise="61.96" route="route1_direct" type="easyBike" waiting="0.00" lane="E0_0" pos="45.04" speed="8.18" angle="102.22" x="-883.05" y="583.22"/>
        <vehicle id="easybike_02" eclass="Energy/default" CO2="0.00" CO="0.00" HC="0.00" NOx="0.00" PMx="0.00" fuel="0.00" electricity="1.67" noise="60.58" route="route2_via_n5n6" type="easyBike" waiting="0.00" lane="E4_0" pos="28.68" speed="5.88" angle="170.98" x="-928.17" y="561.15"/>
        <vehicle id="easybike_03" eclass="Energy/default" CO2="0.00" CO="0.00" HC="0.00" NOx="0.00" PMx="0.00" fuel="0.00" electricity="1.51" noise="60.24" route="route3_southern" type="easyBike" waiting="0.00" lane="E4_0" pos="19.46" speed="5.12" angle="170.98" x="-929.66" y="570.52"/>
        <vehicle id="easybike_04" eclass="Energy/default" CO2="0.00" CO="0.00" HC="0.00" NOx="0.00" PMx="0.00" fuel="0.00" electricity="0.87" noise="59.31" route="route4_long_via_n9n10" type="easyBike" waiting="0.00" lane="E4_0" pos="7.77" speed="2.70" angle="170.98" x="-931.54" y="582.42"/>
        <vehicle id="easybike_05" eclass="Energy/default" CO2="0.00" CO="0.00" HC="0.00" NOx="0.00" PMx="0.00" fuel="0.00" electricity="0.87" noise="59.93" route="route5_via_n11" type="easyBike" waiting="0.00" lane="E0_0" pos="5.51" speed="2.11" angle="102.22" x="-923.95" y="592.08"/>
        <vehicle id="easybike_06" eclass="Energy/default" CO2="0.00" CO="0.00" HC="0.00" NOx="0.00" PMx="0.00" fuel="0.00" electricity="0.22" noise="60.99" route="route6_via_n10n11" type="easyBike" waiting="0.00" lane="E4_0" pos="2.58" speed="0.55" angle="170.98" x="-932.38" y="587.71"/>
    </timestep>
    <timestep time="11.00">
        <vehicle id="easybike_01" eclass="Energy/default" CO2="0.00" CO="0.00" HC="0.00" NOx="0.00" PMx="0.00" fuel="0.00" electricity="1.74" noise="61.49" route="route1_direct" type="easyBike" waiting="0.00" lane="E0_0" pos="49.20" speed="8.32" angle="102.22" x="-878.74" y="582.29"/>
        <vehicle id="easybike_02" eclass="Energy/default" CO2="0.00" CO="0.00" HC="0.00" NOx="0.00" PMx="0.00" fuel="0.00" electricity="3.47" noise="62.95" route="route2_via_n5n6" type="easyBike" waiting="0.00" lane="E4_0" pos="31.86" speed="6.36" angle="170.98" x="-927.65" y="557.91"/>
        <vehicle id="easybike_03" eclass="Energy/default" CO2="0.00" CO="0.00" HC="0.00" NOx="0.00" PMx="0.00" fuel="0.00" electricity="2.19" noise="61.30" route="route3_southern" type="easyBike" waiting="0.00" lane="E4_0" pos="22.19" speed="5.46" angle="170.98" x="-929.21" y="567.75"/>
        <vehicle id="easybike_04" eclass="Energy/default" CO2="0.00" CO="0.00" HC="0.00" NOx="0.00" PMx="0.00" fuel="0.00" electricity="0.71" noise="58.72" route="route4_long_via_n9n10" type="easyBike" waiting="0.00" lane="E4_0" pos="9.21" speed="2.88" angle="170.98" x="-931.31" y="580.95"/>
        <vehicle id="easybike_05" eclass="Energy/default" CO2="0.00" CO="0.00" HC="0.00" NOx="0.00" PMx="0.00" fuel="0.00" electricity="0.68" noise="58.86" route="route5_via_n11" type="easyBike" waiting="0.00" lane="E0_0" pos="6.67" speed="2.34" angle="102.22" x="-922.75" y="591.81"/>
        <vehicle id="easybike_06" eclass="Energy/default" CO2="0.00" CO="0.00" HC="0.00" NOx="0.00" PMx="0.00" fuel="0.00" electricity="0.16" noise="57.44" route="route6_via_n10n11" type="easyBike" waiting="0.00" lane="E4_0" pos="2.92" speed="0.69" angle="170.98" x="-932.33" y="587.36"/>
    </timestep>
    <timestep time="11.50">
        <vehicle id="easybike_01" eclass="Energy/default" CO2="0.00" CO="0.00" HC="0.00" NOx="0.00" PMx="0.00" fuel="0.00" electricity="2.53" noise="62.23" route="route1_direct" type="easyBike" waiting="0.00" lane="E0_0" pos="53.47" speed="8.54" angle="102.22" x="-874.32" y="581.33"/>
        <vehicle id="easybike_02" eclass="Energy/default" CO2="0.00" CO="0.00" HC="0.00" NOx="0.00" PMx="0.00" fuel="0.00" electricity="4.14" noise="63.66" route="route2_via_n5n6" type="easyBike" waiting="0.00" lane="E4_0" pos="35.30" speed="6.89" angle="170.98" x="-927.10" y="554.41"/>
        <vehicle id="easybike_03" eclass="Energy/default" CO2="0.00" CO="0.00" HC="0.00" NOx="0.00" PMx="0.00" fuel="0.00" electricity="2.05" noise="61.07" route="route3_southern" type="easyBike" waiting="0.00" lane="E4_0" pos="25.06" speed="5.74" angle="170.98" x="-928.75" y="564.82"/>
        <vehicle id="easybike_04" eclass="Energy/default" CO2="0.00" CO="0.00" HC="0.00" NOx="0.00" PMx="0.00" fuel="0.00" electricity="1.27" noise="60.19" route="route4_long_via_n9n10" type="easyBike" waiting="0.00" lane="E4_0" pos="10.82" speed="3.21" angle="170.98" x="-931.05" y="579.32"/>
        <vehicle id="easybike_05" eclass="Energy/default" CO2="0.00" CO="0.00" HC="0.00" NOx="0.00" PMx="0.00" fuel="0.00" electricity="0.66" noise="58.68" route="route5_via_n11" type="easyBike" waiting="0.00" lane="E0_0" pos="7.94" speed="2.53" angle="102.22" x="-921.44" y="591.53"/>
        <vehicle id="easybike_06" eclass="Energy/default" CO2="0.00" CO="0.00" HC="0.00" NOx="0.00" PMx="0.00" fuel="0.00" electricity="0.66" noise="61.26" route="route6_via_n10n11" type="easyBike" waiting="0.00" lane="E4_0" pos="3.54" speed="1.24" angle="170.98" x="-932.23" y="586.73"/>
    </timestep>
    <timestep time="12.00">
        <vehicle id="easybike_01" eclass="Energy/default" CO2="0.00" CO="0.00" HC="0.00" NOx="0.00" PMx="0.00" fuel="0.00" electricity="6.20" noise="65.41" route="route1_direct" type="easyBike" waiting="0.00" lane="E0_0" pos="58.04" speed="9.14" angle="102.22" x="-869.60" y="580.31"/>
        <vehicle id="easybike_02" eclass="Energy/default" CO2="0.00" CO="0.00" HC="0.00" NOx="0.00" PMx="0.00" fuel="0.00" electricity="1.61" noise="60.83" route="route2_via_n5n6" type="easyBike" waiting="0.00" lane="E4_0" pos="38.82" speed="7.04" angle="170.98" x="-926.53" y="550.82"/>
        <vehicle id="easybike_03" eclass="Energy/default" CO2="0.00" CO="0.00" HC="0.00" NOx="0.00" PMx="0.00" fuel="0.00" electricity="3.97" noise="63.63" route="route3_southern" type="easyBike" waiting="0.00" lane="E4_0" pos="28.21" speed="6.30" angle="170.98" x="-928.24" y="561.62"/>
        <vehicle id="easybike_04" eclass="Energy/default" CO2="0.00" CO="0.00" HC="0.00" NOx="0.00" PMx="0.00" fuel="0.00" electricity="0.98" noise="59.31" route="route4_long_via_n9n10" type="easyBike" waiting="0.00" lane="E4_0" pos="12.53" speed="3.43" angle="170.98" x="-930.78" y="577.57"/>
        <vehicle id="easybike_05" eclass="Energy/default" CO2="0.00" CO="0.00" HC="0.00" NOx="0.00" PMx="0.00" fuel="0.00" electricity="1.80" noise="61.95" route="route5_via_n11" type="easyBike" waiting="0.00" lane="E0_0" pos="9.47" speed="3.07" angle="102.22" x="-919.85" y="591.19"/>
        <vehicle id="easybike_06" eclass="Energy/default" CO2="0.00" CO="0.00" HC="0.00" NOx="0.00" PMx="0.00" fuel="0.00" electricity="0.60" noise="59.44" route="route6_via_n10n11" type="easyBike" waiting="0.00" lane="E4_0" pos="4.33" speed="1.57" angle="170.98" x="-932.10" y="585.93"/>
    </timestep>
    <timestep time="12.50">
        <vehicle id="easybike_01" eclass="Energy/default" CO2="0.00" CO="0.00" HC="0.00" NOx="0.00" PMx="0.00" fuel="0.00" electricity="2.45" noise="62.49" route="route1_direct" type="easyBike" waiting="0.00" lane="E0_0" pos="62.70" speed="9.32" angle="102.22" x="-864.77" y="579.26"/>
        <vehicle id="easybike_02" eclass="Energy/default" CO2="0.00" CO="0.00" HC="0.00" NOx="0.00" PMx="0.00" fuel="0.00" electricity="4.05" noise="63.46" route="route2_via_n5n6" type="easyBike" waiting="0.00" lane="E4_0" pos="42.57" speed="7.51" angle="170.98" x="-925.92" y="547.00"/>
        <vehicle id="easybike_03" eclass="Energy/default" CO2="0.00" CO="0.00" HC="0.00" NOx="0.00" PMx="0.00" fuel="0.00" electricity="3.01" noise="62.32" route="route3_southern" type="easyBike" waiting="0.00" lane="E4_0" pos="31.55" speed="6.68" angle="170.98" x="-927.70" y="558.22"/>
        <vehicle id="easybike_04" eclass="Energy/default" CO2="0.00" CO="0.00" HC="0.00" NOx="0.00" PMx="0.00" fuel="0.00" electricity="2.47" noise="62.56" route="route4_long_via_n9n10" type="easyBike" waiting="0.00" lane="E4_0" pos="14.53" speed="4.00" angle="170.98" x="-930.45" y="575.54"/>
        <vehicle id="easybike_05" eclass="Energy/default" CO2="0.00" CO="0.00" HC="0.00" NOx="0.00" PMx="0.00" fuel="0.00" electricity="2.06" noise="61.98" route="route5_via_n11" type="easyBike" waiting="0.00" lane="E0_0" pos="11.27" speed="3.59" angle="102.22" x="-917.99" y="590.78"/>
        <vehicle id="easybike_06" eclass="Energy/default" CO2="0.00" CO="0.00" HC="0.00" NOx="0.00" PMx="0.00" fuel="0.00" electricity="1.15" noise="61.35" route="route6_via_n10n11" type="easyBike" waiting="0.00" lane="E4_0" pos="5.37" speed="2.09" angle="170.98" x="-931.93" y="584.86"/>