<?xml version="1.0" encoding="UTF-8"?>

<!-- generated on 2025-11-11 05:53:17 by Eclipse SUMO GUI Version 1.22.0
<sumoConfiguration xmlns:xsi="http://www.w3.org/2001/XMLSchema-instance" xsi:noNamespaceSchemaLocation="http://sumo.dlr.de/xsd/sumoConfiguration.xsd">

    <input>
        <net-file value="D:\JUST\Thesis\Implementation\New2 ( with charging staton )\MOD3\Test1.net.xml"/>
        <route-files value="D:\JUST\Thesis\Implementation\New2 ( with charging staton )\MOD3\Test1.rou.xml"/>
        <additional-files value="D:\JUST\Thesis\Implementation\New2 ( with charging staton )\MOD3\Test1.add.xml"/>
    </input>

    <output>
        <emission-output value="D:\JUST\Thesis\Implementation\New2 ( with charging staton )\MOD3\emissions.xml"/>
        <battery-output value="D:\JUST\Thesis\Implementation\New2 ( with charging staton )\MOD3\battery.xml"/>
        <chargingstations-output value="D:\JUST\Thesis\Implementation\New2 ( with charging staton )\MOD3\chargingstations.xml"/>
        <fcd-output value="D:\JUST\Thesis\Implementation\New2 ( with charging staton )\MOD3\fcd.xml"/>
        <summary-output value="D:\JUST\Thesis\Implementation\New2 ( with charging staton )\MOD3\summary.xml"/>
        <tripinfo-output value="D:\JUST\Thesis\Implementation\New2 ( with charging staton )\MOD3\tripinfo.xml"/>
    </output>

    <time>
        <begin value="0"/>
        <end value="200"/>
        <step-length value="0.5"/>
    </time>

    <processing>
        <lateral-resolution value="0.8"/>
        <ignore-junction-blocker value="5"/>
        <ignore-route-errors value="true"/>
        <collision.check-junctions value="true"/>
    </processing>

    <report>
        <verbose value="true"/>
        <duration-log.statistics value="true"/>
    </report>

    <emissions>
        <device.emissions.probability value="1"/>
    </emissions>

    <battery>
        <device.battery.probability value="1"/>
    </battery>

</sumoConfiguration>
-->

<fcd-export xmlns:xsi="http://www.w3.org/2001/XMLSchema-instance" xsi:noNamespaceSchemaLocation="http://sumo.dlr.de/xsd/fcd_file.xsd">
    <timestep time="0.00">
        <vehicle id="easybike_01" x="-927.27" y="592.79" angle="102.22" type="easyBike" speed="0.00" pos="2.30" lane="E0_0" slope="0.00"/>
    </timestep>
    <timestep time="0.50">
        <vehicle id="easybike_01" x="-926.98" y="592.73" angle="102.22" type="easyBike" speed="0.56" pos="2.58" lane="E0_0" slope="0.00"/>
    </timestep>
    <timestep time="1.00">
        <vehicle id="easybike_01" x="-926.61" y="592.65" angle="102.22" type="easyBike" speed="0.71" pos="2.94" lane="E0_0" slope="0.00"/>
    </timestep>
    <timestep time="1.50">
        <vehicle id="easybike_01" x="-926.09" y="592.54" angle="102.22" type="easyBike" speed="1.01" pos="3.44" lane="E0_0" slope="0.00"/>
    </timestep>
    <timestep time="2.00">
        <vehicle id="easybike_01" x="-925.35" y="592.38" angle="102.22" type="easyBike" speed="1.42" pos="4.15" lane="E0_0" slope="0.00"/>
        <vehicle id="easybike_02" x="-932.43" y="587.99" angle="170.98" type="easyBike" speed="0.00" pos="2.30" lane="E4_0" slope="0.00"/>
    </timestep>
    <timestep time="2.50">
        <vehicle id="easybike_01" x="-924.51" y="592.20" angle="102.22" type="easyBike" speed="1.62" pos="4.97" lane="E0_0" slope="0.00"/>
        <vehicle id="easybike_02" x="-932.38" y="587.70" angle="170.98" type="easyBike" speed="0.58" pos="2.59" lane="E4_0" slope="0.00"/>
    </timestep>
    <timestep time="3.00">
        <vehicle id="easybike_01" x="-923.37" y="591.95" angle="102.22" type="easyBike" speed="2.21" pos="6.07" lane="E0_0" slope="0.00"/>
        <vehicle id="easybike_02" x="-932.32" y="587.30" angle="170.98" type="easyBike" speed="0.79" pos="2.98" lane="E4_0" slope="0.00"/>
    </timestep>
    <timestep time="3.50">
        <vehicle id="easybike_01" x="-922.16" y="591.69" angle="102.22" type="easyBike" speed="2.33" pos="7.23" lane="E0_0" slope="0.00"/>
        <vehicle id="easybike_02" x="-932.22" y="586.69" angle="170.98" type="easyBike" speed="1.18" pos="3.57" lane="E4_0" slope="0.00"/>
    </timestep>
    <timestep time="4.00">
        <vehicle id="easybike_01" x="-920.68" y="591.37" angle="102.22" type="easyBike" speed="2.88" pos="8.67" lane="E0_0" slope="0.00"/>
        <vehicle id="easybike_02" x="-932.10" y="585.91" angle="170.98" type="easyBike" speed="1.55" pos="4.35" lane="E4_0" slope="0.00"/>
    </timestep>
    <timestep time="4.50">
        <vehicle id="easybike_01" x="-919.01" y="591.01" angle="102.22" type="easyBike" speed="3.22" pos="10.28" lane="E0_0" slope="0.00"/>
        <vehicle id="easybike_02" x="-931.94" y="584.92" angle="170.98" type="easyBike" speed="1.94" pos="5.32" lane="E4_0" slope="0.00"/>
        <vehicle id="easybike_03" x="-932.43" y="587.99" angle="170.98" type="easyBike" speed="0.00" pos="2.30" lane="E4_0" slope="0.00"/>
    </timestep>
    <timestep time="5.00">
        <vehicle id="easybike_01" x="-917.21" y="590.62" angle="102.22" type="easyBike" speed="3.49" pos="12.03" lane="E0_0" slope="0.00"/>
        <vehicle id="easybike_02" x="-931.76" y="583.80" angle="170.98" type="easyBike" speed="2.21" pos="6.42" lane="E4_0" slope="0.00"/>
        <vehicle id="easybike_03" x="-932.40" y="587.83" angle="170.98" type="easyBike" speed="0.31" pos="2.46" lane="E4_0" slope="0.00"/>
    </timestep>
    <timestep time="5.50">
        <vehicle id="easybike_01" x="-915.17" y="590.17" angle="102.22" type="easyBike" speed="3.93" pos="14.00" lane="E0_0" slope="0.00"/>
        <vehicle id="easybike_02" x="-931.57" y="582.59" angle="170.98" type="easyBike" speed="2.37" pos="7.60" lane="E4_0" slope="0.00"/>
        <vehicle id="easybike_03" x="-932.34" y="587.41" angle="170.98" type="easyBike" speed="0.82" pos="2.87" lane="E4_0" slope="0.00"/>
    </timestep>
    <timestep time="6.00">
        <vehicle id="easybike_01" x="-912.94" y="589.69" angle="102.22" type="easyBike" speed="4.31" pos="16.15" lane="E0_0" slope="0.00"/>
        <vehicle id="easybike_02" x="-931.36" y="581.27" angle="170.98" type="easyBike" speed="2.60" pos="8.90" lane="E4_0" slope="0.00"/>
        <vehicle id="easybike_03" x="-932.23" y="586.71" angle="170.98" type="easyBike" speed="1.38" pos="3.56" lane="E4_0" slope="0.00"/>
    </timestep>
    <timestep time="6.50">
        <vehicle id="easybike_01" x="-910.62" y="589.19" angle="102.22" type="easyBike" speed="4.48" pos="18.39" lane="E0_0" slope="0.00"/>
        <vehicle id="easybike_02" x="-931.12" y="579.74" angle="170.98" type="easyBike" speed="3.01" pos="10.41" lane="E4_0" slope="0.00"/>
        <vehicle id="easybike_03" x="-932.07" y="585.71" angle="170.98" type="easyBike" speed="1.96" pos="4.54" lane="E4_0" slope="0.00"/>
    </timestep>
    <timestep time="7.00">
        <vehicle id="easybike_01" x="-907.99" y="588.62" angle="102.22" type="easyBike" speed="5.07" pos="20.93" lane="E0_0" slope="0.00"/>
        <vehicle id="easybike_02" x="-930.86" y="578.09" angle="170.98" type="easyBike" speed="3.25" pos="12.03" lane="E4_0" slope="0.00"/>
        <vehicle id="easybike_03" x="-931.87" y="584.48" angle="170.98" type="easyBike" speed="2.42" pos="5.74" lane="E4_0" slope="0.00"/>
        <vehicle id="easybike_04" x="-932.43" y="587.99" angle="170.98" type="easyBike" speed="0.00" pos="2.30" lane="E4_0" slope="0.00"/>
    </timestep>
    <timestep time="7.50">
        <vehicle id="easybike_01" x="-905.17" y="588.01" angle="102.22" type="easyBike" speed="5.45" pos="23.65" lane="E0_0" slope="0.00"/>
        <vehicle id="easybike_02" x="-930.57" y="576.26" angle="170.98" type="easyBike" speed="3.59" pos="13.82" lane="E4_0" slope="0.00"/>
        <vehicle id="easybike_03" x="-931.66" y="583.12" angle="170.98" type="easyBike" speed="2.68" pos="7.08" lane="E4_0" slope="0.00"/>
        <vehicle id="easybike_04" x="-932.40" y="587.79" angle="170.98" type="easyBike" speed="0.40" pos="2.50" lane="E4_0" slope="0.00"/>
    </timestep>
    <timestep time="8.00">
        <vehicle id="easybike_01" x="-902.17" y="587.36" angle="102.22" type="easyBike" speed="5.81" pos="26.56" lane="E0_0" slope="0.00"/>
        <vehicle id="easybike_02" x="-930.25" y="574.30" angle="170.98" type="easyBike" speed="3.86" pos="15.76" lane="E4_0" slope="0.00"/>
        <vehicle id="easybike_03" x="-931.42" y="581.64" angle="170.98" type="easyBike" speed="2.92" pos="8.54" lane="E4_0" slope="0.00"/>
        <vehicle id="easybike_04" x="-932.32" y="587.28" angle="170.98" type="easyBike" speed="0.99" pos="3.00" lane="E4_0" slope="0.00"/>
        <vehicle id="easybike_05" x="-927.27" y="592.79" angle="102.22" type="easyBike" speed="0.00" pos="2.30" lane="E0_0" slope="0.00"/>
    </timestep>
    <timestep time="8.50">
        <vehicle id="easybike_01" x="-898.86" y="586.64" angle="102.22" type="easyBike" speed="6.39" pos="29.76" lane="E0_0" slope="0.00"/>
        <vehicle id="easybike_02" x="-929.91" y="572.10" angle="170.98" type="easyBike" speed="4.31" pos="17.91" lane="E4_0" slope="0.00"/>
        <vehicle id="easybike_03" x="-931.14" y="579.90" angle="170.98" type="easyBike" speed="3.41" pos="10.25" lane="E4_0" slope="0.00"/>
        <vehicle id="easybike_04" x="-932.22" y="586.67" angle="170.98" type="easyBike" speed="1.21" pos="3.60" lane="E4_0" slope="0.00"/>
        <vehicle id="easybike_05" x="-927.07" y="592.75" angle="102.22" type="easyBike" speed="0.39" pos="2.50" lane="E0_0" slope="0.00"/>
    </timestep>
    <timestep time="9.00">
        <vehicle id="easybike_01" x="-895.26" y="585.86" angle="102.22" type="easyBike" speed="6.96" pos="33.24" lane="E0_0" slope="0.00"/>
        <vehicle id="easybike_02" x="-929.53" y="569.71" angle="170.98" type="easyBike" speed="4.70" pos="20.26" lane="E4_0" slope="0.00"/>
        <vehicle id="easybike_03" x="-930.83" y="577.91" angle="170.98" type="easyBike" speed="3.90" pos="12.20" lane="E4_0" slope="0.00"/>
        <vehicle id="easybike_04" x="-932.11" y="585.99" angle="170.98" type="easyBike" speed="1.33" pos="4.26" lane="E4_0" slope="0.00"/>
        <vehicle id="easybike_05" x="-926.65" y="592.66" angle="102.22" type="easyBike" speed="0.81" pos="2.90" lane="E0_0" slope="0.00"/>
    </timestep>
    <timestep time="9.50">
        <vehicle id="easybike_01" x="-891.41" y="585.03" angle="102.22" type="easyBike" speed="7.44" pos="36.96" lane="E0_0" slope="0.00"/>
        <vehicle id="easybike_02" x="-929.10" y="567.02" angle="170.98" type="easyBike" speed="5.27" pos="22.90" lane="E4_0" slope="0.00"/>
        <vehicle id="easybike_03" x="-930.47" y="575.62" angle="170.98" type="easyBike" speed="4.50" pos="14.45" lane="E4_0" slope="0.00"/>
        <vehicle id="easybike_04" x="-931.96" y="585.03" angle="170.98" type="easyBike" speed="1.88" pos="5.20" lane="E4_0" slope="0.00"/>
        <vehicle id="easybike_05" x="-925.95" y="592.51" angle="102.22" type="easyBike" speed="1.35" pos="3.58" lane="E0_0" slope="0.00"/>
    </timestep>
    <timestep time="10.00">
        <vehicle id="easybike_01" x="-887.28" y="584.14" angle="102.22" type="easyBike" speed="7.97" pos="40.95" lane="E0_0" slope="0.00"/>
        <vehicle id="easybike_02" x="-928.64" y="564.14" angle="170.98" type="easyBike" speed="5.67" pos="25.73" lane="E4_0" slope="0.00"/>
        <vehicle id="easybike_03" x="-930.07" y="573.13" angle="170.98" type="easyBike" speed="4.90" pos="16.90" lane="E4_0" slope="0.00"/>
        <vehicle id="easybike_04" x="-931.76" y="583.79" angle="170.98" type="easyBike" speed="2.44" pos="6.42" lane="E4_0" slope="0.00"/>
        <vehicle id="easybike_05" x="-925.04" y="592.31" angle="102.22" type="easyBike" speed="1.75" pos="4.45" lane="E0_0" slope="0.00"/>
        <vehicle id="easybike_06" x="-932.43" y="587.99" angle="170.98" type="easyBike" speed="0.00" pos="2.30" lane="E4_0" slope="0.00"/>
    </timestep>
    <timestep time="10.50">
        <vehicle id="easybike_01" x="-883.05" y="583.22" angle="102.22" type="easyBike" speed="8.18" pos="45.04" lane="E0_0" slope="0.00"/>
        <vehicle id="easybike_02" x="-928.17" y="561.15" angle="170.98" type="easyBike" speed="5.88" pos="28.68" lane="E4_0" slope="0.00"/>
        <vehicle id="easybike_03" x="-929.66" y="570.52" angle="170.98" type="easyBike" speed="5.12" pos="19.46" lane="E4_0" slope="0.00"/>
        <vehicle id="easybike_04" x="-931.54" y="582.42" angle="170.98" type="easyBike" speed="2.70" pos="7.77" lane="E4_0" slope="0.00"/>
        <vehicle id="easybike_05" x="-923.95" y="592.08" angle="102.22" type="easyBike" speed="2.11" pos="5.51" lane="E0_0" slope="0.00"/>
        <vehicle id="easybike_06" x="-932.38" y="587.71" angle="170.98" type="easyBike" speed="0.55" pos="2.58" lane="E4_0" slope="0.00"/>
    </timestep>
    <timestep time="11.00">
        <vehicle id="easybike_01" x="-878.74" y="582.29" angle="102.22" type="easyBike" speed="8.32" pos="49.20" lane="E0_0" slope="0.00"/>
        <vehicle id="easybike_02" x="-927.65" y="557.91" angle="170.98" type="easyBike" speed="6.36" pos="31.86" lane="E4_0" slope="0.00"/>
        <vehicle id="easybike_03" x="-929.21" y="567.75" angle="170.98" type="easyBike" speed="5.46" pos="22.19" lane="E4_0" slope="0.00"/>
        <vehicle id="easybike_04" x="-931.31" y="580.95" angle="170.98" type="easyBike" speed="2.88" pos="9.21" lane="E4_0" slope="0.00"/>
        <vehicle id="easybike_05" x="-922.75" y="591.81" angle="102.22" type="easyBike" speed="2.34" pos="6.67" lane="E0_0" slope="0.00"/>
        <vehicle id="easybike_06" x="-932.33" y="587.36" angle="170.98" type="easyBike" speed="0.69" pos="2.92" lane="E4_0" slope="0.00"/>
    </timestep>
    <timestep time="11.50">
        <vehicle id="easybike_01" x="-874.32" y="581.33" angle="102.22" type="easyBike" speed="8.54" pos="53.47" lane="E0_0" slope="0.00"/>
        <vehicle id="easybike_02" x="-927.10" y="554.41" angle="170.98" type="easyBike" speed="6.89" pos="35.30" lane="E4_0" slope="0.00"/>
        <vehicle id="easybike_03" x="-928.75" y="564.82" angle="170.98" type="easyBike" speed="5.74" pos="25.06" lane="E4_0" slope="0.00"/>
        <vehicle id="easybike_04" x="-931.05" y="579.32" angle="170.98" type="easyBike" speed="3.21" pos="10.82" lane="E4_0" slope="0.00"/>
        <vehicle id="easybike_05" x="-921.44" y="591.53" angle="102.22" type="easyBike" speed="2.53" pos="7.94" lane="E0_0" slope="0.00"/>
        <vehicle id="easybike_06" x="-932.23" y="586.73" angle="170.98" type="easyBike" speed="1.24" pos="3.54" lane="E4_0" slope="0.00"/>
    </timestep>
    <timestep time="12.00">
        <vehicle id="easybike_01" x="-869.60" y="580.31" angle="102.22" type="easyBike" speed="9.14" pos="58.04" lane="E0_0" slope="0.00"/>
        <vehicle id="easybike_02" x="-926.53" y="550.82" angle="170.98" type="easyBike" speed="7.04" pos="38.82" lane="E4_0" slope="0.00"/>
        <vehicle id="easybike_03" x="-928.24" y="561.62" angle="170.98" type="easyBike" speed="6.30" pos="28.21" lane="E4_0" slope="0.00"/>
        <vehicle id="easybike_04" x="-930.78" y="577.57" angle="170.98" type="easyBike" speed="3.43" pos="12.53" lane="E4_0" slope="0.00"/>
        <vehicle id="easybike_05" x="-919.85" y="591.19" angle="102.22" type="easyBike" speed="3.07" pos="9.47" lane="E0_0" slope="0.00"/>
        <vehicle id="easybike_06" x="-932.10" y="585.93" angle="170.98" type="easyBike" speed="1.57" pos="4.33" lane="E4_0" slope="0.00"/>
    </timestep>
    <timestep time="12.50">
        <vehicle id="easybike_01" x="-864.77" y="579.26" angle="102.22" type="easyBike" speed="9.32" pos="62.70" lane="E0_0" slope="0.00"/>
        <vehicle id="easybike_02" x="-925.92" y="547.00" angle="170.98" type="easyBike" speed="7.51" pos="42.57" lane="E4_0" slope="0.00"/>
        <vehicle id="easybike_03" x="-927.70" y="558.22" angle="170.98" type="easyBike" speed="6.68" pos="31.55" lane="E4_0" slope="0.00"/>
        <vehicle id="easybike_04" x="-930.45" y="575.54" angle="170.98" type="easyBike" speed="4.00" pos="14.53" lane="E4_0" slope="0.00"/>
        <vehicle id="easybike_05" x="-917.99" y="590.78" angle="102.22" type="easyBike" speed="3.59" pos="11.27" lane="E0_0" slope="0.00"/>
        <vehicle id="easybike_06" x="-931.93" y="584.86" angle="170.98" type="easyBike" speed="2.09" pos="5.37" lane="E4_0" slope="0.00"/>
        <vehicle id="easybike_07" x="-932.43" y="587.99" angle="170.98" type="easyBike" speed="0.00" pos="2.30" lane="E4_0" slope="0.00"/>
    </timestep>
    <timestep time="13.00">
        <vehicle id="easybike_01" x="-859.83" y="578.19" angle="102.22" type="easyBike" speed="9.55" pos="67.48" lane="E0_0" slope="0.00"/>
        <vehicle id="easybike_02" x="-925.28" y="542.96" angle="170.98" type="easyBike" speed="7.95" pos="46.55" lane="E4_0" slope="0.00"/>
        <vehicle id="easybike_03" x="-927.12" y="554.55" angle="170.98" type="easyBike" speed="7.21" pos="35.16" lane="E4_0" slope="0.00"/>
        <vehicle id="easybike_04" x="-930.09" y="573.26" angle="170.98" type="easyBike" speed="4.49" pos="16.78" lane="E4_0" slope="0.00"/>
        <vehicle id="easybike_05" x="-915.89" y="590.33" angle="102.22" type="easyBike" speed="4.06" pos="13.30" lane="E0_0" slope="0.00"/>
        <vehicle id="easybike_06" x="-931.73" y="583.61" angle="170.98" type="easyBike" speed="2.46" pos="6.60" lane="E4_0" slope="0.00"/>
        <vehicle id="easybike_07" x="-932.40" y="587.80" angle="170.98" type="easyBike" speed="0.38" pos="2.49" lane="E4_0" slope="0.00"/>
    </timestep>
    <timestep time="13.50">
        <vehicle id="easybike_01" x="-854.74" y="577.09" angle="102.22" type="easyBike" speed="9.85" pos="72.40" lane="E0_0" slope="0.00"/>
        <vehicle id="easybike_02" x="-924.60" y="538.67" angle="170.98" type="easyBike" speed="8.42" pos="50.76" lane="E4_0" slope="0.00"/>
        <vehicle id="easybike_03" x="-926.53" y="550.80" angle="170.98" type="easyBike" speed="7.36" pos="38.84" lane="E4_0" slope="0.00"/>
        <vehicle id="easybike_04" x="-929.68" y="570.67" angle="170.98" type="easyBike" speed="5.08" pos="19.32" lane="E4_0" slope="0.00"/>
        <vehicle id="easybike_05" x="-913.50" y="589.81" angle="102.22" type="easyBike" speed="4.61" pos="15.60" lane="E0_0" slope="0.00"/>
        <vehicle id="easybike_06" x="-931.52" y="582.24" angle="170.98" type="easyBike" speed="2.69" pos="7.95" lane="E4_0" slope="0.00"/>
        <vehicle id="easybike_07" x="-932.33" y="587.35" angle="170.98" type="easyBike" speed="0.88" pos="2.93" lane="E4_0" slope="0.00"/>
    </timestep>
    <timestep time="14.00">
        <vehicle id="easybike_01" x="-849.51" y="575.96" angle="102.22" type="easyBike" speed="10.11" pos="77.46" lane="E0_0" slope="0.00"/>
        <vehicle id="easybike_02" x="-923.87" y="534.09" angle="170.98" type="easyBike" speed="9.01" pos="55.27" lane="E4_0" slope="0.00"/>
        <vehicle id="easybike_03" x="-925.90" y="546.88" angle="170.98" type="easyBike" speed="7.72" pos="42.70" lane="E4_0" slope="0.00"/>
        <vehicle id="easybike_04" x="-929.24" y="567.88" angle="170.98" type="easyBike" speed="5.48" pos="22.06" lane="E4_0" slope="0.00"/>
        <vehicle id="easybike_05" x="-910.98" y="589.27" angle="102.22" type="easyBike" speed="4.88" pos="18.04" lane="E0_0" slope="0.00"/>
        <vehicle id="easybike_06" x="-931.25" y="580.59" angle="170.98" type="easyBike" speed="3.25" pos="9.57" lane="E4_0" slope="0.00"/>
        <vehicle id="easybike_07" x="-932.23" y="586.71" angle="170.98" type="easyBike" speed="1.25" pos="3.55" lane="E4_0" slope="0.00"/>
        <vehicle id="easybike_08" x="-927.27" y="592.79" angle="102.22" type="easyBike" speed="0.00" pos="2.30" lane="E0_0" slope="0.00"/>
    </timestep>
    <timestep time="14.50">
        <vehicle id="easybike_01" x="-844.20" y="574.81" angle="102.22" type="easyBike" speed="10.25" pos="82.58" lane="E0_0" slope="0.00"/>
        <vehicle id="easybike_02" x="-923.13" y="529.38" angle="170.98" type="easyBike" speed="9.24" pos="59.89" lane="E4_0" slope="0.00"/>
        <vehicle id="easybike_03" x="-925.26" y="542.85" angle="170.98" type="easyBike" speed="7.91" pos="46.65" lane="E4_0" slope="0.00"/>
        <vehicle id="easybike_04" x="-928.75" y="564.84" angle="170.98" type="easyBike" speed="5.98" pos="25.04" lane="E4_0" slope="0.00"/>
        <vehicle id="easybike_05" x="-908.36" y="588.70" angle="102.22" type="easyBike" speed="5.07" pos="20.58" lane="E0_0" slope="0.00"/>
        <vehicle id="easybike_06" x="-930.95" y="578.67" angle="170.98" type="easyBike" speed="3.77" pos="11.46" lane="E4_0" slope="0.00"/>
        <vehicle id="easybike_07" x="-932.09" y="585.83" angle="170.98" type="easyBike" speed="1.73" pos="4.42" lane="E4_0" slope="0.00"/>
        <vehicle id="easybike_08" x="-926.99" y="592.73" angle="102.22" type="easyBike" speed="0.55" pos="2.57" lane="E0_0" slope="0.00"/>
    </timestep>
    <timestep time="15.00">
        <vehicle id="easybike_01" x="-838.68" y="573.61" angle="102.22" type="easyBike" speed="10.67" pos="87.92" lane="E0_0" slope="0.00"/>
        <vehicle id="easybike_02" x="-922.34" y="524.45" angle="170.98" type="easyBike" speed="9.69" pos="64.73" lane="E4_0" slope="0.00"/>
        <vehicle id="easybike_03" x="-924.60" y="538.67" angle="170.98" type="easyBike" speed="8.22" pos="50.76" lane="E4_0" slope="0.00"/>
        <vehicle id="easybike_04" x="-928.26" y="561.73" angle="170.98" type="easyBike" speed="6.12" pos="28.11" lane="E4_0" slope="0.00"/>
        <vehicle id="easybike_05" x="-905.46" y="588.07" angle="102.22" type="easyBike" speed="5.61" pos="23.38" lane="E0_0" slope="0.00"/>
        <vehicle id="easybike_06" x="-930.63" y="576.66" angle="170.98" type="easyBike" speed="3.94" pos="13.43" lane="E4_0" slope="0.00"/>
        <vehicle id="easybike_07" x="-931.91" y="584.70" angle="170.98" type="easyBike" speed="2.23" pos="5.53" lane="E4_0" slope="0.00"/>
        <vehicle id="easybike_08" x="-926.49" y="592.63" angle="102.22" type="easyBike" speed="0.96" pos="3.05" lane="E0_0" slope="0.00"/>
    </timestep>
    <timestep time="15.50">
        <vehicle id="easybike_01" x="-832.98" y="572.38" angle="102.22" type="easyBike" speed="11.02" pos="93.43" lane="E0_0" slope="0.00"/>
        <vehicle id="easybike_02" x="-921.52" y="519.29" angle="170.98" type="easyBike" speed="10.15" pos="69.81" lane="E4_0" slope="0.00"/>
        <vehicle id="easybike_03" x="-923.91" y="534.35" angle="170.98" type="easyBike" speed="8.50" pos="55.01" lane="E4_0" slope="0.00"/>
        <vehicle id="easybike_04" x="-927.72" y="558.33" angle="170.98" type="easyBike" speed="6.68" pos="31.45" lane="E4_0" slope="0.00"/>
        <vehicle id="easybike_05" x="-902.35" y="587.40" angle="102.22" type="easyBike" speed="6.00" pos="26.38" lane="E0_0" slope="0.00"/>
        <vehicle id="easybike_06" x="-930.29" y="574.55" angle="170.98" type="easyBike" speed="4.16" pos="15.51" lane="E4_0" slope="0.00"/>
        <vehicle id="easybike_07" x="-931.70" y="583.38" angle="170.98" type="easyBike" speed="2.58" pos="6.83" lane="E4_0" slope="0.00"/>
        <vehicle id="easybike_08" x="-925.85" y="592.49" angle="102.22" type="easyBike" speed="1.25" pos="3.67" lane="E0_0" slope="0.00"/>
        <vehicle id="erickshaw_03" x="-932.38" y="587.68" angle="170.98" type="eRickshaw" speed="0.00" pos="2.60" lane="E4_0" slope="0.00"/>
    </timestep>
    <timestep time="16.00">
        <vehicle id="easybike_01" x="-827.04" y="571.09" angle="102.22" type="easyBike" speed="11.48" pos="99.17" lane="E0_0" slope="0.00"/>
        <vehicle id="easybike_02" x="-920.69" y="514.02" angle="170.98" type="easyBike" speed="10.36" pos="74.98" lane="E4_0" slope="0.00"/>
        <vehicle id="easybike_03" x="-923.21" y="529.90" angle="170.98" type="easyBike" speed="8.73" pos="59.37" lane="E4_0" slope="0.00"/>
        <vehicle id="easybike_04" x="-927.17" y="554.84" angle="170.98" type="easyBike" speed="6.85" pos="34.88" lane="E4_0" slope="0.00"/>
        <vehicle id="easybike_05" x="-899.15" y="586.71" angle="102.22" type="easyBike" speed="6.18" pos="29.47" lane="E0_0" slope="0.00"/>
        <vehicle id="easybike_06" x="-929.94" y="572.34" angle="170.98" type="easyBike" speed="4.35" pos="17.68" lane="E4_0" slope="0.00"/>
        <vehicle id="easybike_07" x="-931.48" y="582.00" angle="170.98" type="easyBike" speed="2.72" pos="8.19" lane="E4_0" slope="0.00"/>
        <vehicle id="easybike_08" x="-925.12" y="592.33" angle="102.22" type="easyBike" speed="1.41" pos="4.38" lane="E0_0" slope="0.00"/>
        <vehicle id="erickshaw_03" x="-932.36" y="587.55" angle="170.98" type="eRickshaw" speed="0.27" pos="2.74" lane="E4_0" slope="0.00"/>
    </timestep>
    <timestep time="16.50">
        <vehicle id="easybike_01" x="-820.82" y="569.74" angle="102.22" type="easyBike" speed="12.04" pos="105.18" lane="E0_0" slope="0.00"/>
        <vehicle id="easybike_02" x="-919.82" y="508.59" angle="170.98" type="easyBike" speed="10.66" pos="80.32" lane="E4_0" slope="0.00"/>
        <vehicle id="easybike_03" x="-922.47" y="525.29" angle="170.98" type="easyBike" speed="9.07" pos="63.91" lane="E4_0" slope="0.00"/>
        <vehicle id="easybike_04" x="-926.59" y="551.19" angle="170.98" type="easyBike" speed="7.17" pos="38.46" lane="E4_0" slope="0.00"/>
        <vehicle id="easybike_05" x="-895.73" y="585.96" angle="102.22" type="easyBike" speed="6.62" pos="32.78" lane="E0_0" slope="0.00"/>
        <vehicle id="easybike_06" x="-929.55" y="569.85" angle="170.98" type="easyBike" speed="4.89" pos="20.12" lane="E4_0" slope="0.00"/>
        <vehicle id="easybike_07" x="-931.25" y="580.54" angle="170.98" type="easyBike" speed="2.86" pos="9.62" lane="E4_0" slope="0.00"/>
        <vehicle id="easybike_08" x="-924.19" y="592.13" angle="102.22" type="easyBike" speed="1.79" pos="5.27" lane="E0_0" slope="0.00"/>
        <vehicle id="erickshaw_03" x="-932.31" y="587.26" angle="170.98" type="eRickshaw" speed="0.55" pos="3.01" lane="E4_0" slope="0.00"/>
    </timestep>
    <timestep time="17.00">
        <vehicle id="easybike_01" x="-814.33" y="568.34" angle="102.22" type="easyBike" speed="12.54" pos="111.45" lane="E0_0" slope="0.00"/>
        <vehicle id="easybike_02" x="-918.92" y="502.92" angle="170.98" type="easyBike" speed="11.15" pos="85.89" lane="E4_0" slope="0.00"/>
        <vehicle id="easybike_03" x="-921.73" y="520.60" angle="170.98" type="easyBike" speed="9.21" pos="68.51" lane="E4_0" slope="0.00"/>
        <vehicle id="easybike_04" x="-925.96" y="547.25" angle="170.98" type="easyBike" speed="7.74" pos="42.33" lane="E4_0" slope="0.00"/>
        <vehicle id="easybike_05" x="-892.09" y="585.18" angle="102.22" type="easyBike" speed="7.04" pos="36.30" lane="E0_0" slope="0.00"/>
        <vehicle id="easybike_06" x="-929.11" y="567.11" angle="170.98" type="easyBike" speed="5.39" pos="22.82" lane="E4_0" slope="0.00"/>
        <vehicle id="easybike_07" x="-930.99" y="578.92" angle="170.98" type="easyBike" speed="3.20" pos="11.21" lane="E4_0" slope="0.00"/>
        <vehicle id="easybike_08" x="-923.19" y="591.91" angle="102.22" type="easyBike" speed="1.93" pos="6.24" lane="E0_0" slope="0.00"/>
        <vehicle id="erickshaw_03" x="-932.26" y="586.93" angle="170.98" type="eRickshaw" speed="0.66" pos="3.34" lane="E4_0" slope="0.00"/>
    </timestep>
    <timestep time="17.50">
        <vehicle id="easybike_01" x="-807.66" y="566.89" angle="102.22" type="easyBike" speed="12.89" pos="117.90" lane="E0_0" slope="0.00"/>
        <vehicle id="easybike_02" x="-917.98" y="496.95" angle="170.98" type="easyBike" speed="11.74" pos="91.76" lane="E4_0" slope="0.00"/>
        <vehicle id="easybike_03" x="-920.95" y="515.66" angle="170.98" type="easyBike" speed="9.71" pos="73.37" lane="E4_0" slope="0.00"/>
        <vehicle id="easybike_04" x="-925.31" y="543.18" angle="170.98" type="easyBike" speed="8.01" pos="46.33" lane="E4_0" slope="0.00"/>
        <vehicle id="easybike_05" x="-888.22" y="584.34" angle="102.22" type="easyBike" speed="7.47" pos="40.04" lane="E0_0" slope="0.00"/>
        <vehicle id="easybike_06" x="-928.67" y="564.30" angle="170.98" type="easyBike" speed="5.52" pos="25.58" lane="E4_0" slope="0.00"/>
        <vehicle id="easybike_07" x="-930.68" y="577.00" angle="170.98" type="easyBike" speed="3.76" pos="13.09" lane="E4_0" slope="0.00"/>
        <vehicle id="easybike_08" x="-922.05" y="591.66" angle="102.22" type="easyBike" speed="2.21" pos="7.34" lane="E0_0" slope="0.00"/>
        <vehicle id="erickshaw_03" x="-932.19" y="586.49" angle="170.98" type="eRickshaw" speed="0.87" pos="3.78" lane="E4_0" slope="0.00"/>
    </timestep>
    <timestep time="18.00">
        <vehicle id="easybike_01" x="-800.78" y="565.40" angle="102.22" type="easyBike" speed="13.29" pos="124.55" lane="E0_0" slope="0.00"/>
        <vehicle id="easybike_02" x="-917.00" y="490.80" angle="170.98" type="easyBike" speed="12.08" pos="97.80" lane="E4_0" slope="0.00"/>
        <vehicle id="easybike_03" x="-920.13" y="510.49" angle="170.98" type="easyBike" speed="10.16" pos="78.45" lane="E4_0" slope="0.00"/>
        <vehicle id="easybike_04" x="-924.64" y="538.95" angle="170.98" type="easyBike" speed="8.31" pos="50.49" lane="E4_0" slope="0.00"/>
        <vehicle id="easybike_05" x="-884.07" y="583.44" angle="102.22" type="easyBike" speed="8.03" pos="44.05" lane="E0_0" slope="0.00"/>
        <vehicle id="easybike_06" x="-928.19" y="561.30" angle="170.98" type="easyBike" speed="5.89" pos="28.52" lane="E4_0" slope="0.00"/>
        <vehicle id="easybike_07" x="-930.34" y="574.86" angle="170.98" type="easyBike" speed="4.21" pos="15.20" lane="E4_0" slope="0.00"/>
        <vehicle id="easybike_08" x="-920.79" y="591.39" angle="102.22" type="easyBike" speed="2.44" pos="8.56" lane="E0_0" slope="0.00"/>
        <vehicle id="erickshaw_03" x="-932.11" y="585.99" angle="170.98" type="eRickshaw" speed="0.97" pos="4.26" lane="E4_0" slope="0.00"/>
    </timestep>
    <timestep time="18.50">
        <vehicle id="easybike_01" x="-793.60" y="563.85" angle="102.22" type="easyBike" speed="13.89" pos="131.49" lane="E0_0" slope="0.00"/>