<?xml version="1.0" encoding="UTF-8"?>

<!-- generated on 2025-09-20 21:46:39 by Eclipse SUMO GUI Version 1.22.0
<sumoConfiguration xmlns:xsi="http://www.w3.org/2001/XMLSchema-instance" xsi:noNamespaceSchemaLocation="http://sumo.dlr.de/xsd/sumoConfiguration.xsd">

    <input>
        <net-file value="D:\JUST\Thesis\Implementation\New0\Test1.net.xml"/>
        <route-files value="D:\JUST\Thesis\Implementation\New0\Test1.rou.xml"/>
        <additional-files value="D:\JUST\Thesis\Implementation\New0\Test1.add.xml"/>
    </input>

    <output>
        <battery-output value="D:\JUST\Thesis\Implementation\New0\battery.xml"/>
        <chargingstations-output value="D:\JUST\Thesis\Implementation\New0\chargingstations.xml"/>
        <fcd-output value="D:\JUST\Thesis\Implementation\New0\fcd.xml"/>
        <summary-output value="D:\JUST\Thesis\Implementation\New0\summary.xml"/>
        <tripinfo-output value="D:\JUST\Thesis\Implementation\New0\tripinfo.xml"/>
        <vehroute-output value="D:\JUST\Thesis\Implementation\New0\routes.xml"/>
    </output>

    <time>
        <begin value="0"/>
        <end value="200"/>
    </time>

    <processing>
        <collision.check-junctions value="true"/>
    </processing>

</sumoConfiguration>
-->

<fcd-export xmlns:xsi="http://www.w3.org/2001/XMLSchema-instance" xsi:noNamespaceSchemaLocation="http://sumo.dlr.de/xsd/fcd_file.xsd">
</fcd-export>
