<?xml version="1.0" encoding="UTF-8"?>
<configuration xmlns:xsi="http://www.w3.org/2001/XMLSchema-instance"
               xsi:noNamespaceSchemaLocation="http://sumo.dlr.de/xsd/sumoConfiguration.xsd">

    <input>
        <net-file value="Test1.net.xml"/>
        <route-files value="Test1.rou.xml"/>
        <additional-files value="Test1.add.xml"/>
    </input>

    <time>
        <begin value="0"/>
        <end value="200"/>
    </time>

    <processing>
        <collision.check-junctions value="true"/>
    </processing>

    <output>
        <tripinfo-output value="tripinfo.xml"/>
        <vehroute-output value="routes.xml"/>
        <fcd-output value="fcd.xml"/>
        <battery-output value="battery.xml"/>
        <chargingstations-output value="chargingstations.xml"/>
        <summary-output value="summary.xml"/>
    </output>



</configuration>