<?xml version="1.0" encoding="UTF-8"?>

<!-- generated on 2025-09-22 05:42:04 by Eclipse SUMO GUI Version 1.22.0
<sumoConfiguration xmlns:xsi="http://www.w3.org/2001/XMLSchema-instance" xsi:noNamespaceSchemaLocation="http://sumo.dlr.de/xsd/sumoConfiguration.xsd">

    <input>
        <net-file value="D:\JUST\Thesis\Implementation\New2 ( with charging staton )\MOD2 ( vehicle size fixed )\Test1.net.xml"/>
        <route-files value="D:\JUST\Thesis\Implementation\New2 ( with charging staton )\MOD2 ( vehicle size fixed )\Test1.rou.xml"/>
        <additional-files value="D:\JUST\Thesis\Implementation\New2 ( with charging staton )\MOD2 ( vehicle size fixed )\Test1.add.xml"/>
    </input>

    <output>
        <emission-output value="D:\JUST\Thesis\Implementation\New2 ( with charging staton )\MOD2 ( vehicle size fixed )\emissions.xml"/>
        <battery-output value="D:\JUST\Thesis\Implementation\New2 ( with charging staton )\MOD2 ( vehicle size fixed )\battery.xml"/>
        <chargingstations-output value="D:\JUST\Thesis\Implementation\New2 ( with charging staton )\MOD2 ( vehicle size fixed )\chargingstations.xml"/>
        <fcd-output value="D:\JUST\Thesis\Implementation\New2 ( with charging staton )\MOD2 ( vehicle size fixed )\fcd.xml"/>
        <summary-output value="D:\JUST\Thesis\Implementation\New2 ( with charging staton )\MOD2 ( vehicle size fixed )\summary.xml"/>
        <tripinfo-output value="D:\JUST\Thesis\Implementation\New2 ( with charging staton )\MOD2 ( vehicle size fixed )\tripinfo.xml"/>
    </output>

    <time>
        <begin value="0"/>
        <end value="200"/>
        <step-length value="0.5"/>
    </time>

    <processing>
        <lateral-resolution value="0.8"/>
        <ignore-junction-blocker value="5"/>
        <ignore-route-errors value="true"/>
        <collision.check-junctions value="true"/>
    </processing>

    <report>
        <verbose value="true"/>
        <duration-log.statistics value="true"/>
    </report>

    <emissions>
        <device.emissions.probability value="1"/>
    </emissions>

    <battery>
        <device.battery.probability value="1"/>
    </battery>

</sumoConfiguration>
-->

<fcd-export xmlns:xsi="http://www.w3.org/2001/XMLSchema-instance" xsi:noNamespaceSchemaLocation="http://sumo.dlr.de/xsd/fcd_file.xsd">
    <timestep time="0.00">
        <vehicle id="easybike01" x="-927.27" y="592.79" angle="102.22" type="easyBike" speed="0.00" pos="2.30" lane="E0_0" slope="0.00"/>
    </timestep>
    <timestep time="0.50">
        <vehicle id="easybike01" x="-926.98" y="592.73" angle="102.22" type="easyBike" speed="0.56" pos="2.58" lane="E0_0" slope="0.00"/>
    </timestep>
    <timestep time="1.00">
        <vehicle id="easybike01" x="-926.61" y="592.65" angle="102.22" type="easyBike" speed="0.71" pos="2.94" lane="E0_0" slope="0.00"/>
    </timestep>
    <timestep time="1.50">
        <vehicle id="easybike01" x="-926.09" y="592.54" angle="102.22" type="easyBike" speed="1.01" pos="3.44" lane="E0_0" slope="0.00"/>
    </timestep>
    <timestep time="2.00">
        <vehicle id="easybike01" x="-925.35" y="592.38" angle="102.22" type="easyBike" speed="1.42" pos="4.15" lane="E0_0" slope="0.00"/>
        <vehicle id="easybike02" x="-932.43" y="587.99" angle="170.98" type="easyBike" speed="0.00" pos="2.30" lane="E4_0" slope="0.00"/>
    </timestep>
    <timestep time="2.50">
        <vehicle id="easybike01" x="-924.51" y="592.20" angle="102.22" type="easyBike" speed="1.62" pos="4.97" lane="E0_0" slope="0.00"/>
        <vehicle id="easybike02" x="-932.38" y="587.70" angle="170.98" type="easyBike" speed="0.58" pos="2.59" lane="E4_0" slope="0.00"/>
    </timestep>
    <timestep time="3.00">
        <vehicle id="easybike01" x="-923.37" y="591.95" angle="102.22" type="easyBike" speed="2.21" pos="6.07" lane="E0_0" slope="0.00"/>
        <vehicle id="easybike02" x="-932.32" y="587.30" angle="170.98" type="easyBike" speed="0.79" pos="2.98" lane="E4_0" slope="0.00"/>
    </timestep>
    <timestep time="3.50">
        <vehicle id="easybike01" x="-922.16" y="591.69" angle="102.22" type="easyBike" speed="2.33" pos="7.23" lane="E0_0" slope="0.00"/>
        <vehicle id="easybike02" x="-932.22" y="586.69" angle="170.98" type="easyBike" speed="1.18" pos="3.57" lane="E4_0" slope="0.00"/>
    </timestep>
    <timestep time="4.00">
        <vehicle id="easybike01" x="-920.68" y="591.37" angle="102.22" type="easyBike" speed="2.88" pos="8.67" lane="E0_0" slope="0.00"/>
        <vehicle id="easybike02" x="-932.10" y="585.91" angle="170.98" type="easyBike" speed="1.55" pos="4.35" lane="E4_0" slope="0.00"/>
        <vehicle id="easybike03" x="-927.27" y="592.79" angle="102.22" type="easyBike" speed="0.00" pos="2.30" lane="E0_0" slope="0.00"/>
    </timestep>
    <timestep time="4.50">
        <vehicle id="easybike01" x="-919.01" y="591.01" angle="102.22" type="easyBike" speed="3.22" pos="10.28" lane="E0_0" slope="0.00"/>
        <vehicle id="easybike02" x="-931.94" y="584.92" angle="170.98" type="easyBike" speed="1.94" pos="5.32" lane="E4_0" slope="0.00"/>
        <vehicle id="easybike03" x="-927.04" y="592.75" angle="102.22" type="easyBike" speed="0.44" pos="2.52" lane="E0_0" slope="0.00"/>
    </timestep>
    <timestep time="5.00">
        <vehicle id="easybike01" x="-917.12" y="590.60" angle="102.22" type="easyBike" speed="3.66" pos="12.11" lane="E0_0" slope="0.00"/>
        <vehicle id="easybike02" x="-931.76" y="583.80" angle="170.98" type="easyBike" speed="2.21" pos="6.42" lane="E4_0" slope="0.00"/>
        <vehicle id="easybike03" x="-926.61" y="592.65" angle="102.22" type="easyBike" speed="0.85" pos="2.94" lane="E0_0" slope="0.00"/>
    </timestep>
    <timestep time="5.50">
        <vehicle id="easybike01" x="-915.14" y="590.17" angle="102.22" type="easyBike" speed="3.83" pos="14.03" lane="E0_0" slope="0.00"/>
        <vehicle id="easybike02" x="-931.55" y="582.43" angle="170.98" type="easyBike" speed="2.68" pos="7.76" lane="E4_0" slope="0.00"/>
        <vehicle id="easybike03" x="-925.86" y="592.49" angle="102.22" type="easyBike" speed="1.44" pos="3.66" lane="E0_0" slope="0.00"/>
    </timestep>
    <timestep time="6.00">
        <vehicle id="easybike01" x="-912.96" y="589.70" angle="102.22" type="easyBike" speed="4.20" pos="16.13" lane="E0_0" slope="0.00"/>
        <vehicle id="easybike02" x="-931.32" y="580.99" angle="170.98" type="easyBike" speed="2.84" pos="9.18" lane="E4_0" slope="0.00"/>
        <vehicle id="easybike03" x="-924.93" y="592.29" angle="102.22" type="easyBike" speed="1.80" pos="4.56" lane="E0_0" slope="0.00"/>
        <vehicle id="easybike04" x="-932.43" y="587.99" angle="170.98" type="easyBike" speed="0.00" pos="2.30" lane="E4_0" slope="0.00"/>
    </timestep>
    <timestep time="6.50">
        <vehicle id="easybike01" x="-910.48" y="589.16" angle="102.22" type="easyBike" speed="4.79" pos="18.52" lane="E0_0" slope="0.00"/>
        <vehicle id="easybike02" x="-931.05" y="579.30" angle="170.98" type="easyBike" speed="3.32" pos="10.84" lane="E4_0" slope="0.00"/>
        <vehicle id="easybike03" x="-923.91" y="592.07" angle="102.22" type="easyBike" speed="1.98" pos="5.55" lane="E0_0" slope="0.00"/>
        <vehicle id="easybike04" x="-932.39" y="587.78" angle="170.98" type="easyBike" speed="0.41" pos="2.51" lane="E4_0" slope="0.00"/>
    </timestep>
    <timestep time="7.00">
        <vehicle id="easybike01" x="-907.71" y="588.56" angle="102.22" type="easyBike" speed="5.36" pos="21.20" lane="E0_0" slope="0.00"/>
        <vehicle id="easybike02" x="-930.74" y="577.32" angle="170.98" type="easyBike" speed="3.88" pos="12.78" lane="E4_0" slope="0.00"/>
        <vehicle id="easybike03" x="-922.69" y="591.80" angle="102.22" type="easyBike" speed="2.36" pos="6.73" lane="E0_0" slope="0.00"/>
        <vehicle id="easybike04" x="-932.33" y="587.34" angle="170.98" type="easyBike" speed="0.85" pos="2.93" lane="E4_0" slope="0.00"/>
    </timestep>
    <timestep time="7.50">
        <vehicle id="easybike01" x="-904.69" y="587.91" angle="102.22" type="easyBike" speed="5.84" pos="24.12" lane="E0_0" slope="0.00"/>
        <vehicle id="easybike02" x="-930.38" y="575.06" angle="170.98" type="easyBike" speed="4.46" pos="15.01" lane="E4_0" slope="0.00"/>
        <vehicle id="easybike03" x="-921.18" y="591.48" angle="102.22" type="easyBike" speed="2.91" pos="8.18" lane="E0_0" slope="0.00"/>
        <vehicle id="easybike04" x="-932.24" y="586.79" angle="170.98" type="easyBike" speed="1.10" pos="3.48" lane="E4_0" slope="0.00"/>
    </timestep>
    <timestep time="8.00">
        <vehicle id="easybike01" x="-901.40" y="587.19" angle="102.22" type="easyBike" speed="6.36" pos="27.30" lane="E0_0" slope="0.00"/>
        <vehicle id="easybike02" x="-929.98" y="572.56" angle="170.98" type="easyBike" speed="4.92" pos="17.47" lane="E4_0" slope="0.00"/>
        <vehicle id="easybike03" x="-919.47" y="591.11" angle="102.22" type="easyBike" speed="3.30" pos="9.83" lane="E0_0" slope="0.00"/>
        <vehicle id="easybike04" x="-932.12" y="586.06" angle="170.98" type="easyBike" speed="1.43" pos="4.20" lane="E4_0" slope="0.00"/>
    </timestep>
    <timestep time="8.50">
        <vehicle id="easybike01" x="-898.00" y="586.46" angle="102.22" type="easyBike" speed="6.58" pos="30.59" lane="E0_0" slope="0.00"/>
        <vehicle id="easybike02" x="-929.56" y="569.92" angle="170.98" type="easyBike" speed="5.18" pos="20.05" lane="E4_0" slope="0.00"/>
        <vehicle id="easybike03" x="-917.58" y="590.70" angle="102.22" type="easyBike" speed="3.66" pos="11.67" lane="E0_0" slope="0.00"/>
        <vehicle id="easybike04" x="-931.99" y="585.22" angle="170.98" type="easyBike" speed="1.64" pos="5.02" lane="E4_0" slope="0.00"/>
        <vehicle id="easybike05" x="-932.43" y="587.99" angle="170.98" type="easyBike" speed="0.00" pos="2.30" lane="E4_0" slope="0.00"/>
    </timestep>
    <timestep time="9.00">
        <vehicle id="easybike01" x="-894.52" y="585.70" angle="102.22" type="easyBike" speed="6.71" pos="33.95" lane="E0_0" slope="0.00"/>
        <vehicle id="easybike02" x="-929.12" y="567.14" angle="170.98" type="easyBike" speed="5.46" pos="22.78" lane="E4_0" slope="0.00"/>
        <vehicle id="easybike03" x="-915.57" y="590.26" angle="102.22" type="easyBike" speed="3.89" pos="13.61" lane="E0_0" slope="0.00"/>
        <vehicle id="easybike04" x="-931.84" y="584.27" angle="170.98" type="easyBike" speed="1.87" pos="5.95" lane="E4_0" slope="0.00"/>
        <vehicle id="easybike05" x="-932.43" y="587.98" angle="170.98" type="easyBike" speed="0.02" pos="2.31" lane="E4_0" slope="0.00"/>
    </timestep>
    <timestep time="9.50">
        <vehicle id="easybike01" x="-890.94" y="584.93" angle="102.22" type="easyBike" speed="6.93" pos="37.41" lane="E0_0" slope="0.00"/>
        <vehicle id="easybike02" x="-928.64" y="564.14" angle="170.98" type="easyBike" speed="5.90" pos="25.73" lane="E4_0" slope="0.00"/>
        <vehicle id="easybike03" x="-913.46" y="589.80" angle="102.22" type="easyBike" speed="4.08" pos="15.65" lane="E0_0" slope="0.00"/>
        <vehicle id="easybike04" x="-931.65" y="583.07" angle="170.98" type="easyBike" speed="2.37" pos="7.14" lane="E4_0" slope="0.00"/>
        <vehicle id="easybike05" x="-932.39" y="587.77" angle="170.98" type="easyBike" speed="0.42" pos="2.52" lane="E4_0" slope="0.00"/>
    </timestep>
    <timestep time="10.00">
        <vehicle id="easybike01" x="-887.04" y="584.08" angle="102.22" type="easyBike" speed="7.53" pos="41.18" lane="E0_0" slope="0.00"/>
        <vehicle id="easybike02" x="-928.13" y="560.94" angle="170.98" type="easyBike" speed="6.29" pos="28.88" lane="E4_0" slope="0.00"/>
        <vehicle id="easybike03" x="-911.07" y="589.29" angle="102.22" type="easyBike" speed="4.62" pos="17.96" lane="E0_0" slope="0.00"/>
        <vehicle id="easybike04" x="-931.42" y="581.61" angle="170.98" type="easyBike" speed="2.86" pos="8.57" lane="E4_0" slope="0.00"/>
        <vehicle id="easybike05" x="-932.34" y="587.45" angle="170.98" type="easyBike" speed="0.61" pos="2.83" lane="E4_0" slope="0.00"/>
        <vehicle id="easybike06" x="-927.27" y="592.79" angle="102.22" type="easyBike" speed="0.00" pos="2.30" lane="E0_0" slope="0.00"/>
    </timestep>
    <timestep time="10.50">
        <vehicle id="easybike01" x="-883.05" y="583.22" angle="102.22" type="easyBike" speed="7.72" pos="45.04" lane="E0_0" slope="0.00"/>
        <vehicle id="easybike02" x="-927.58" y="557.45" angle="170.98" type="easyBike" speed="6.86" pos="32.31" lane="E4_0" slope="0.00"/>
        <vehicle id="easybike03" x="-908.40" y="588.71" angle="102.22" type="easyBike" speed="5.14" pos="20.53" lane="E0_0" slope="0.00"/>
        <vehicle id="easybike04" x="-931.14" y="579.85" angle="170.98" type="easyBike" speed="3.46" pos="10.30" lane="E4_0" slope="0.00"/>
        <vehicle id="easybike05" x="-932.25" y="586.86" angle="170.98" type="easyBike" speed="1.17" pos="3.41" lane="E4_0" slope="0.00"/>
        <vehicle id="easybike06" x="-927.06" y="592.75" angle="102.22" type="easyBike" speed="0.41" pos="2.51" lane="E0_0" slope="0.00"/>
    </timestep>
    <timestep time="11.00">
        <vehicle id="easybike01" x="-878.82" y="582.30" angle="102.22" type="easyBike" speed="8.18" pos="49.13" lane="E0_0" slope="0.00"/>
        <vehicle id="easybike02" x="-926.99" y="553.75" angle="170.98" type="easyBike" speed="7.26" pos="35.94" lane="E4_0" slope="0.00"/>
        <vehicle id="easybike03" x="-905.58" y="588.10" angle="102.22" type="easyBike" speed="5.45" pos="23.26" lane="E0_0" slope="0.00"/>
        <vehicle id="easybike04" x="-930.82" y="577.89" angle="170.98" type="easyBike" speed="3.86" pos="12.23" lane="E4_0" slope="0.00"/>
        <vehicle id="easybike05" x="-932.11" y="585.98" angle="170.98" type="easyBike" speed="1.72" pos="4.27" lane="E4_0" slope="0.00"/>
        <vehicle id="easybike06" x="-926.56" y="592.64" angle="102.22" type="easyBike" speed="0.97" pos="2.99" lane="E0_0" slope="0.00"/>
    </timestep>
    <timestep time="11.50">
        <vehicle id="easybike01" x="-874.45" y="581.36" angle="102.22" type="easyBike" speed="8.44" pos="53.35" lane="E0_0" slope="0.00"/>
        <vehicle id="easybike02" x="-926.39" y="549.95" angle="170.98" type="easyBike" speed="7.47" pos="39.68" lane="E4_0" slope="0.00"/>
        <vehicle id="easybike03" x="-902.62" y="587.46" angle="102.22" type="easyBike" speed="5.72" pos="26.12" lane="E0_0" slope="0.00"/>
        <vehicle id="easybike04" x="-930.49" y="575.81" angle="170.98" type="easyBike" speed="4.08" pos="14.27" lane="E4_0" slope="0.00"/>
        <vehicle id="easybike05" x="-931.95" y="584.98" angle="170.98" type="easyBike" speed="1.98" pos="5.26" lane="E4_0" slope="0.00"/>
        <vehicle id="easybike06" x="-925.98" y="592.52" angle="102.22" type="easyBike" speed="1.11" pos="3.55" lane="E0_0" slope="0.00"/>
    </timestep>
    <timestep time="12.00">
        <vehicle id="easybike01" x="-869.98" y="580.39" angle="102.22" type="easyBike" speed="8.63" pos="57.67" lane="E0_0" slope="0.00"/>
        <vehicle id="easybike02" x="-925.75" y="545.89" angle="170.98" type="easyBike" speed="7.98" pos="43.67" lane="E4_0" slope="0.00"/>
        <vehicle id="easybike03" x="-899.41" y="586.76" angle="102.22" type="easyBike" speed="6.21" pos="29.23" lane="E0_0" slope="0.00"/>
        <vehicle id="easybike04" x="-930.13" y="573.49" angle="170.98" type="easyBike" speed="4.56" pos="16.55" lane="E4_0" slope="0.00"/>
        <vehicle id="easybike05" x="-931.76" y="583.80" angle="170.98" type="easyBike" speed="2.31" pos="6.42" lane="E4_0" slope="0.00"/>
        <vehicle id="easybike06" x="-925.19" y="592.34" angle="102.22" type="easyBike" speed="1.53" pos="4.31" lane="E0_0" slope="0.00"/>
        <vehicle id="easybike07" x="-932.43" y="587.99" angle="170.98" type="easyBike" speed="0.00" pos="2.30" lane="E4_0" slope="0.00"/>
    </timestep>
    <timestep time="12.50">
        <vehicle id="easybike01" x="-865.24" y="579.36" angle="102.22" type="easyBike" speed="9.17" pos="62.25" lane="E0_0" slope="0.00"/>
        <vehicle id="easybike02" x="-925.09" y="541.74" angle="170.98" type="easyBike" speed="8.16" pos="47.74" lane="E4_0" slope="0.00"/>
        <vehicle id="easybike03" x="-895.99" y="586.02" angle="102.22" type="easyBike" speed="6.62" pos="32.54" lane="E0_0" slope="0.00"/>
        <vehicle id="easybike04" x="-929.75" y="571.11" angle="170.98" type="easyBike" speed="4.68" pos="18.89" lane="E4_0" slope="0.00"/>
        <vehicle id="easybike05" x="-931.53" y="582.35" angle="170.98" type="easyBike" speed="2.84" pos="7.84" lane="E4_0" slope="0.00"/>
        <vehicle id="easybike06" x="-924.22" y="592.13" angle="102.22" type="easyBike" speed="1.88" pos="5.25" lane="E0_0" slope="0.00"/>
        <vehicle id="easybike07" x="-932.39" y="587.76" angle="170.98" type="easyBike" speed="0.44" pos="2.52" lane="E4_0" slope="0.00"/>
    </timestep>
    <timestep time="13.00">
        <vehicle id="easybike01" x="-860.29" y="578.29" angle="102.22" type="easyBike" speed="9.56" pos="67.03" lane="E0_0" slope="0.00"/>
        <vehicle id="easybike02" x="-924.40" y="537.42" angle="170.98" type="easyBike" speed="8.49" pos="51.99" lane="E4_0" slope="0.00"/>
        <vehicle id="easybike03" x="-892.41" y="585.25" angle="102.22" type="easyBike" speed="6.90" pos="35.99" lane="E0_0" slope="0.00"/>
        <vehicle id="easybike04" x="-929.33" y="568.45" angle="170.98" type="easyBike" speed="5.23" pos="21.50" lane="E4_0" slope="0.00"/>
        <vehicle id="easybike05" x="-931.29" y="580.82" angle="170.98" type="easyBike" speed="3.00" pos="9.34" lane="E4_0" slope="0.00"/>
        <vehicle id="easybike06" x="-923.01" y="591.87" angle="102.22" type="easyBike" speed="2.34" pos="6.42" lane="E0_0" slope="0.00"/>
        <vehicle id="easybike07" x="-932.31" y="587.25" angle="170.98" type="easyBike" speed="1.01" pos="3.03" lane="E4_0" slope="0.00"/>
    </timestep>
    <timestep time="13.50">
        <vehicle id="easybike01" x="-855.25" y="577.20" angle="102.22" type="easyBike" speed="9.74" pos="71.90" lane="E0_0" slope="0.00"/>
        <vehicle id="easybike02" x="-923.70" y="532.99" angle="170.98" type="easyBike" speed="8.71" pos="56.34" lane="E4_0" slope="0.00"/>
        <vehicle id="easybike03" x="-888.76" y="584.45" angle="102.22" type="easyBike" speed="7.07" pos="39.52" lane="E0_0" slope="0.00"/>
        <vehicle id="easybike04" x="-928.88" y="565.62" angle="170.98" type="easyBike" speed="5.56" pos="24.28" lane="E4_0" slope="0.00"/>
        <vehicle id="easybike05" x="-931.01" y="579.06" angle="170.98" type="easyBike" speed="3.46" pos="11.07" lane="E4_0" slope="0.00"/>
        <vehicle id="easybike06" x="-921.51" y="591.55" angle="102.22" type="easyBike" speed="2.90" pos="7.87" lane="E0_0" slope="0.00"/>
        <vehicle id="easybike07" x="-932.20" y="586.55" angle="170.98" type="easyBike" speed="1.39" pos="3.72" lane="E4_0" slope="0.00"/>
    </timestep>
    <timestep time="14.00">
        <vehicle id="easybike01" x="-849.99" y="576.06" angle="102.22" type="easyBike" speed="10.18" pos="76.99" lane="E0_0" slope="0.00"/>
        <vehicle id="easybike02" x="-922.95" y="528.27" angle="170.98" type="easyBike" speed="9.28" pos="60.98" lane="E4_0" slope="0.00"/>
        <vehicle id="easybike03" x="-884.90" y="583.62" angle="102.22" type="easyBike" speed="7.45" pos="43.25" lane="E0_0" slope="0.00"/>
        <vehicle id="easybike04" x="-928.39" y="562.53" angle="170.98" type="easyBike" speed="6.08" pos="27.32" lane="E4_0" slope="0.00"/>
        <vehicle id="easybike05" x="-930.70" y="577.08" angle="170.98" type="easyBike" speed="3.90" pos="13.02" lane="E4_0" slope="0.00"/>
        <vehicle id="easybike06" x="-919.75" y="591.17" angle="102.22" type="easyBike" speed="3.40" pos="9.57" lane="E0_0" slope="0.00"/>
        <vehicle id="easybike07" x="-932.04" y="585.57" angle="170.98" type="easyBike" speed="1.91" pos="4.68" lane="E4_0" slope="0.00"/>
        <vehicle id="easybike08" x="-927.27" y="592.79" angle="102.22" type="easyBike" speed="0.00" pos="2.30" lane="E0_0" slope="0.00"/>
    </timestep>
    <timestep time="14.50">
        <vehicle id="easybike01" x="-844.50" y="574.87" angle="102.22" type="easyBike" speed="10.60" pos="82.29" lane="E0_0" slope="0.00"/>
        <vehicle id="easybike02" x="-922.16" y="523.30" angle="170.98" type="easyBike" speed="9.76" pos="65.86" lane="E4_0" slope="0.00"/>
        <vehicle id="easybike03" x="-880.98" y="582.77" angle="102.22" type="easyBike" speed="7.59" pos="47.04" lane="E0_0" slope="0.00"/>
        <vehicle id="easybike04" x="-927.87" y="559.25" angle="170.98" type="easyBike" speed="6.44" pos="30.54" lane="E4_0" slope="0.00"/>
        <vehicle id="easybike05" x="-930.34" y="574.84" angle="170.98" type="easyBike" speed="4.40" pos="15.22" lane="E4_0" slope="0.00"/>
        <vehicle id="easybike06" x="-917.81" y="590.75" angle="102.22" type="easyBike" speed="3.75" pos="11.44" lane="E0_0" slope="0.00"/>
        <vehicle id="easybike07" x="-931.85" y="584.36" angle="170.98" type="easyBike" speed="2.39" pos="5.87" lane="E4_0" slope="0.00"/>
        <vehicle id="easybike08" x="-927.00" y="592.74" angle="102.22" type="easyBike" speed="0.52" pos="2.56" lane="E0_0" slope="0.00"/>
    </timestep>
    <timestep time="15.00">
        <vehicle id="easybike01" x="-838.88" y="573.65" angle="102.22" type="easyBike" speed="10.87" pos="87.73" lane="E0_0" slope="0.00"/>
        <vehicle id="easybike02" x="-921.36" y="518.25" angle="170.98" type="easyBike" speed="9.92" pos="70.82" lane="E4_0" slope="0.00"/>
        <vehicle id="easybike03" x="-876.84" y="581.87" angle="102.22" type="easyBike" speed="8.00" pos="51.04" lane="E0_0" slope="0.00"/>
        <vehicle id="easybike04" x="-927.30" y="555.67" angle="170.98" type="easyBike" speed="7.04" pos="34.06" lane="E4_0" slope="0.00"/>
        <vehicle id="easybike05" x="-929.97" y="572.48" angle="170.98" type="easyBike" speed="4.64" pos="17.54" lane="E4_0" slope="0.00"/>
        <vehicle id="easybike06" x="-915.58" y="590.26" angle="102.22" type="easyBike" speed="4.31" pos="13.60" lane="E0_0" slope="0.00"/>
        <vehicle id="easybike07" x="-931.62" y="582.90" angle="170.98" type="easyBike" speed="2.87" pos="7.30" lane="E4_0" slope="0.00"/>
        <vehicle id="easybike08" x="-926.60" y="592.65" angle="102.22" type="easyBike" speed="0.77" pos="2.95" lane="E0_0" slope="0.00"/>
    </timestep>
    <timestep time="15.50">
        <vehicle id="easybike01" x="-832.95" y="572.37" angle="102.22" type="easyBike" speed="11.46" pos="93.46" lane="E0_0" slope="0.00"/>
        <vehicle id="easybike02" x="-920.51" y="512.90" angle="170.98" type="easyBike" speed="10.51" pos="76.08" lane="E4_0" slope="0.00"/>
        <vehicle id="easybike03" x="-872.63" y="580.96" angle="102.22" type="easyBike" speed="8.13" pos="55.10" lane="E0_0" slope="0.00"/>
        <vehicle id="easybike04" x="-926.70" y="551.91" angle="170.98" type="easyBike" speed="7.39" pos="37.76" lane="E4_0" slope="0.00"/>
        <vehicle id="easybike05" x="-929.56" y="569.92" angle="170.98" type="easyBike" speed="5.03" pos="20.06" lane="E4_0" slope="0.00"/>
        <vehicle id="easybike06" x="-913.07" y="589.72" angle="102.22" type="easyBike" speed="4.86" pos="16.03" lane="E0_0" slope="0.00"/>
        <vehicle id="easybike07" x="-931.34" y="581.15" angle="170.98" type="easyBike" speed="3.43" pos="9.02" lane="E4_0" slope="0.00"/>
        <vehicle id="easybike08" x="-925.96" y="592.51" angle="102.22" type="easyBike" speed="1.23" pos="3.56" lane="E0_0" slope="0.00"/>
    </timestep>
    <timestep time="16.00">
        <vehicle id="easybike01" x="-826.90" y="571.06" angle="102.22" type="easyBike" speed="11.69" pos="99.30" lane="E0_0" slope="0.00"/>
        <vehicle id="easybike02" x="-919.63" y="507.37" angle="170.98" type="easyBike" speed="10.88" pos="81.52" lane="E4_0" slope="0.00"/>
        <vehicle id="easybike03" x="-868.27" y="580.02" angle="102.22" type="easyBike" speed="8.43" pos="59.32" lane="E0_0" slope="0.00"/>
        <vehicle id="easybike04" x="-926.08" y="548.03" angle="170.98" type="easyBike" speed="7.62" pos="41.56" lane="E4_0" slope="0.00"/>
        <vehicle id="easybike05" x="-929.14" y="567.26" angle="170.98" type="easyBike" speed="5.22" pos="22.67" lane="E4_0" slope="0.00"/>
        <vehicle id="easybike06" x="-910.40" y="589.14" angle="102.22" type="easyBike" speed="5.16" pos="18.61" lane="E0_0" slope="0.00"/>
        <vehicle id="easybike07" x="-931.03" y="579.16" angle="170.98" type="easyBike" speed="3.93" pos="10.98" lane="E4_0" slope="0.00"/>
        <vehicle id="easybike08" x="-925.11" y="592.33" angle="102.22" type="easyBike" speed="1.65" pos="4.39" lane="E0_0" slope="0.00"/>
        <vehicle id="easybike09" x="-932.43" y="587.99" angle="170.98" type="easyBike" speed="0.00" pos="2.30" lane="E4_0" slope="0.00"/>
    </timestep>
    <timestep time="16.50">
        <vehicle id="easybike01" x="-820.72" y="569.72" angle="102.22" type="easyBike" speed="11.94" pos="105.27" lane="E0_0" slope="0.00"/>
        <vehicle id="easybike02" x="-918.71" y="501.57" angle="170.98" type="easyBike" speed="11.40" pos="87.22" lane="E4_0" slope="0.00"/>
        <vehicle id="easybike03" x="-863.69" y="579.03" angle="102.22" type="easyBike" speed="8.86" pos="63.75" lane="E0_0" slope="0.00"/>
        <vehicle id="easybike04" x="-925.43" y="543.91" angle="170.98" type="easyBike" speed="8.10" pos="45.61" lane="E4_0" slope="0.00"/>
        <vehicle id="easybike05" x="-928.68" y="564.37" angle="170.98" type="easyBike" speed="5.68" pos="25.51" lane="E4_0" slope="0.00"/>
        <vehicle id="easybike06" x="-907.53" y="588.52" angle="102.22" type="easyBike" speed="5.55" pos="21.38" lane="E0_0" slope="0.00"/>
        <vehicle id="easybike07" x="-930.68" y="577.00" angle="170.98" type="easyBike" speed="4.23" pos="13.10" lane="E4_0" slope="0.00"/>
        <vehicle id="easybike08" x="-923.99" y="592.08" angle="102.22" type="easyBike" speed="2.17" pos="5.47" lane="E0_0" slope="0.00"/>
        <vehicle id="easybike09" x="-932.40" y="587.80" angle="170.98" type="easyBike" speed="0.37" pos="2.49" lane="E4_0" slope="0.00"/>
    </timestep>
    <timestep time="17.00">
        <vehicle id="easybike01" x="-814.44" y="568.36" angle="102.22" type="easyBike" speed="12.15" pos="111.35" lane="E0_0" slope="0.00"/>
        <vehicle id="easybike02" x="-917.77" y="495.68" angle="170.98" type="easyBike" speed="11.57" pos="93.01" lane="E4_0" slope="0.00"/>
        <vehicle id="easybike03" x="-858.81" y="577.97" angle="102.22" type="easyBike" speed="9.44" pos="68.47" lane="E0_0" slope="0.00"/>
        <vehicle id="easybike04" x="-924.74" y="539.54" angle="170.98" type="easyBike" speed="8.60" pos="49.91" lane="E4_0" slope="0.00"/>
        <vehicle id="easybike05" x="-928.18" y="561.25" angle="170.98" type="easyBike" speed="6.13" pos="28.57" lane="E4_0" slope="0.00"/>
        <vehicle id="easybike06" x="-904.35" y="587.83" angle="102.22" type="easyBike" speed="6.14" pos="24.45" lane="E0_0" slope="0.00"/>
        <vehicle id="easybike07" x="-930.32" y="574.71" angle="170.98" type="easyBike" speed="4.51" pos="15.35" lane="E4_0" slope="0.00"/>
        <vehicle id="easybike08" x="-922.79" y="591.82" angle="102.22" type="easyBike" speed="2.32" pos="6.63" lane="E0_0" slope="0.00"/>
        <vehicle id="easybike09" x="-932.32" y="587.32" angle="170.98" type="easyBike" speed="0.94" pos="2.96" lane="E4_0" slope="0.00"/>
    </timestep>
    <timestep time="17.50">
        <vehicle id="easybike01" x="-807.93" y="566.95" angle="102.22" type="easyBike" speed="12.58" pos="117.64" lane="E0_0" slope="0.00"/>
        <vehicle id="easybike02" x="-916.82" y="489.68" angle="170.98" type="easyBike" speed="11.79" pos="98.90" lane="E4_0" slope="0.00"/>
        <vehicle id="easybike03" x="-853.72" y="576.87" angle="102.22" type="easyBike" speed="9.84" pos="73.39" lane="E0_0" slope="0.00"/>
        <vehicle id="easybike04" x="-924.01" y="534.98" angle="170.98" type="easyBike" speed="8.95" pos="54.39" lane="E4_0" slope="0.00"/>
        <vehicle id="easybike05" x="-927.67" y="558.02" angle="170.98" type="easyBike" speed="6.34" pos="31.74" lane="E4_0" slope="0.00"/>
        <vehicle id="easybike06" x="-901.03" y="587.11" angle="102.22" type="easyBike" speed="6.43" pos="27.66" lane="E0_0" slope="0.00"/>
        <vehicle id="easybike07" x="-929.94" y="572.29" angle="170.98" type="easyBike" speed="4.74" pos="17.72" lane="E4_0" slope="0.00"/>
        <vehicle id="easybike08" x="-921.45" y="591.53" angle="102.22" type="easyBike" speed="2.58" pos="7.92" lane="E0_0" slope="0.00"/>
        <vehicle id="easybike09" x="-932.23" y="586.75" angle="170.98" type="easyBike" speed="1.11" pos="3.51" lane="E4_0" slope="0.00"/>
    </timestep>
    <timestep time="18.00">
        <vehicle id="easybike01" x="-801.15" y="565.48" angle="102.22" type="easyBike" speed="13.10" pos="124.19" lane="E0_0" slope="0.00"/>
        <vehicle id="easybike02" x="-915.85" y="483.58" angle="170.98" type="easyBike" speed="11.98" pos="104.89" lane="E4_0" slope="0.00"/>
        <vehicle id="easybike03" x="-848.47" y="575.73" angle="102.22" type="easyBike" speed="10.14" pos="78.46" lane="E0_0" slope="0.00"/>
        <vehicle id="easybike04" x="-923.28" y="530.36" angle="170.98" type="easyBike" speed="9.09" pos="58.93" lane="E4_0" slope="0.00"/>
        <vehicle id="easybike05" x="-927.12" y="554.56" angle="170.98" type="easyBike" speed="6.81" pos="35.15" lane="E4_0" slope="0.00"/>
        <vehicle id="easybike06" x="-897.61" y="586.37" angle="102.22" type="easyBike" speed="6.60" pos="30.96" lane="E0_0" slope="0.00"/>
        <vehicle id="easybike07" x="-929.53" y="569.73" angle="170.98" type="easyBike" speed="5.04" pos="20.24" lane="E4_0" slope="0.00"/>
        <vehicle id="easybike08" x="-920.02" y="591.23" angle="102.22" type="easyBike" speed="2.76" pos="9.30" lane="E0_0" slope="0.00"/>
        <vehicle id="easybike09" x="-932.11" y="586.01" angle="170.98" type="easyBike" speed="1.46" pos="4.24" lane="E4_0" slope="0.00"/>
    </timestep>