<?xml version="1.0" encoding="UTF-8"?>

<!-- generated on 2025-11-15 10:27:12 by Eclipse SUMO sumo Version 1.22.0
<sumoConfiguration xmlns:xsi="http://www.w3.org/2001/XMLSchema-instance" xsi:noNamespaceSchemaLocation="http://sumo.dlr.de/xsd/sumoConfiguration.xsd">

    <input>
        <net-file value="Test1.net.xml"/>
        <route-files value="Test1.rou.xml"/>
        <additional-files value="Test1.add.xml"/>
    </input>

    <output>
        <emission-output value="emissions.xml"/>
        <battery-output value="battery.xml"/>
        <chargingstations-output value="chargingstations.xml"/>
        <fcd-output value="fcd.xml"/>
        <summary-output value="summary.xml"/>
        <tripinfo-output value="tripinfo.xml"/>
    </output>

    <time>
        <begin value="0"/>
        <end value="200"/>
        <step-length value="0.5"/>
    </time>

    <processing>
        <lateral-resolution value="0.8"/>
        <ignore-junction-blocker value="5"/>
        <ignore-route-errors value="true"/>
        <collision.check-junctions value="true"/>
    </processing>

    <report>
        <verbose value="true"/>
        <no-warnings value="true"/>
        <duration-log.statistics value="true"/>
    </report>

    <emissions>
        <device.emissions.probability value="1"/>
    </emissions>

    <battery>
        <device.battery.probability value="1"/>
    </battery>

    <traci_server>
        <remote-port value="55983"/>
    </traci_server>

    <gui_only>
        <quit-on-end value="true"/>
        <start value="true"/>
    </gui_only>

</sumoConfiguration>
-->

<tripinfos xmlns:xsi="http://www.w3.org/2001/XMLSchema-instance" xsi:noNamespaceSchemaLocation="http://sumo.dlr.de/xsd/tripinfo_file.xsd">
    <tripinfo id="easybike_01" depart="0.00" departLane="E0_0" departPos="2.30" departPosLat="0.00" departSpeed="0.00" departDelay="0.00" arrival="256.50" arrivalLane="E3_0" arrivalPos="1300.00" arrivalPosLat="0.00" arrivalSpeed="15.37" duration="256.50" routeLength="3061.58" waitingTime="22.00" waitingCount="1" stopTime="0.00" timeLoss="57.32" rerouteNo="0" devices="tripinfo_easybike_01 emissions_easybike_01 battery_easybike_01 fcd_easybike_01" vType="easyBike" speedFactor="1.11" vaporized="">
        <emissions CO_abs="0" CO2_abs="0" HC_abs="0" PMx_abs="0" NOx_abs="0" fuel_abs="0" electricity_abs="340.862971"/>
        <battery depleted="0" actualBatteryCapacity="17159.14" totalEnergyConsumed="580.64" totalEnergyRegenerated="239.77"/>
    </tripinfo>
    <tripinfo id="easybike_02" depart="2.00" departLane="E4_0" departPos="2.30" departPosLat="0.00" departSpeed="0.00" departDelay="0.00" arrival="577.50" arrivalLane="E3_0" arrivalPos="1300.00" arrivalPosLat="0.00" arrivalSpeed="13.45" duration="575.50" routeLength="3449.11" waitingTime="275.50" waitingCount="2" stopTime="0.00" timeLoss="322.00" rerouteNo="0" devices="tripinfo_easybike_02 emissions_easybike_02 battery_easybike_02 fcd_easybike_02" vType="easyBike" speedFactor="0.99" vaporized="">
        <emissions CO_abs="0" CO2_abs="0" HC_abs="0" PMx_abs="0" NOx_abs="0" fuel_abs="0" electricity_abs="350.374413"/>
        <battery depleted="0" actualBatteryCapacity="17149.63" totalEnergyConsumed="664.09" totalEnergyRegenerated="313.72"/>
    </tripinfo>
    <tripinfo id="easybike_03" depart="4.50" departLane="E4_0" departPos="2.30" departPosLat="0.00" departSpeed="0.00" departDelay="0.50" arrival="818.50" arrivalLane="E15_0" arrivalPos="750.00" arrivalPosLat="0.00" arrivalSpeed="14.68" duration="814.00" routeLength="2880.81" waitingTime="601.00" waitingCount="2" stopTime="0.00" timeLoss="618.66" rerouteNo="0" devices="tripinfo_easybike_03 emissions_easybike_03 battery_easybike_03 fcd_easybike_03" vType="easyBike" speedFactor="1.06" vaporized="">
        <emissions CO_abs="0" CO2_abs="0" HC_abs="0" PMx_abs="0" NOx_abs="0" fuel_abs="0" electricity_abs="237.291812"/>
        <battery depleted="0" actualBatteryCapacity="17262.71" totalEnergyConsumed="460.11" totalEnergyRegenerated="222.82"/>
    </tripinfo>
    <tripinfo id="easybike_05" depart="8.00" departLane="E0_0" departPos="2.30" departPosLat="0.00" departSpeed="0.00" departDelay="0.00" arrival="884.50" arrivalLane="E15_0" arrivalPos="750.00" arrivalPosLat="0.00" arrivalSpeed="14.62" duration="876.50" routeLength="3415.48" waitingTime="612.50" waitingCount="3" stopTime="0.00" timeLoss="648.34" rerouteNo="0" devices="tripinfo_easybike_05 emissions_easybike_05 battery_easybike_05 fcd_easybike_05" vType="easyBike" speedFactor="1.08" vaporized="">
        <emissions CO_abs="0" CO2_abs="0" HC_abs="0" PMx_abs="0" NOx_abs="0" fuel_abs="0" electricity_abs="288.056930"/>
        <battery depleted="0" actualBatteryCapacity="29732.78" totalEnergyConsumed="617.84" totalEnergyRegenerated="329.78"/>
    </tripinfo>
    <tripinfo id="easybike_flow_r1.0" depart="50.00" departLane="E0_0" departPos="2.30" departPosLat="0.00" departSpeed="0.00" departDelay="0.00" arrival="1240.50" arrivalLane="E3_0" arrivalPos="1300.00" arrivalPosLat="0.00" arrivalSpeed="14.98" duration="1190.50" routeLength="3061.58" waitingTime="862.50" waitingCount="4" stopTime="0.00" timeLoss="988.84" rerouteNo="0" devices="tripinfo_easybike_flow_r1.0 emissions_easybike_flow_r1.0 battery_easybike_flow_r1.0 fcd_easybike_flow_r1.0" vType="easyBike" speedFactor="1.10" vaporized="">
        <emissions CO_abs="0" CO2_abs="0" HC_abs="0" PMx_abs="0" NOx_abs="0" fuel_abs="0" electricity_abs="337.338362"/>
        <battery depleted="0" actualBatteryCapacity="17162.66" totalEnergyConsumed="592.98" totalEnergyRegenerated="255.64"/>
    </tripinfo>
    <tripinfo id="easybike_08" depart="14.00" departLane="E0_0" departPos="2.30" departPosLat="0.00" departSpeed="0.00" departDelay="0.00" arrival="1305.00" arrivalLane="E3_0" arrivalPos="1300.00" arrivalPosLat="0.00" arrivalSpeed="12.84" duration="1291.00" routeLength="3753.92" waitingTime="956.50" waitingCount="4" stopTime="0.00" timeLoss="1000.87" rerouteNo="0" devices="tripinfo_easybike_08 emissions_easybike_08 battery_easybike_08 fcd_easybike_08" vType="easyBike" speedFactor="0.94" vaporized="">
        <emissions CO_abs="0" CO2_abs="0" HC_abs="0" PMx_abs="0" NOx_abs="0" fuel_abs="0" electricity_abs="237.940352"/>
        <battery depleted="0" actualBatteryCapacity="17262.06" totalEnergyConsumed="629.27" totalEnergyRegenerated="391.33"/>
    </tripinfo>
    <tripinfo id="erickshaw_05" depart="25.00" departLane="E0_0" departPos="2.60" departPosLat="0.00" departSpeed="0.00" departDelay="0.00" arrival="1386.00" arrivalLane="E15_0" arrivalPos="750.00" arrivalPosLat="0.00" arrivalSpeed="6.80" duration="1361.00" routeLength="3415.18" waitingTime="835.00" waitingCount="3" stopTime="0.00" timeLoss="868.98" rerouteNo="0" devices="tripinfo_erickshaw_05 emissions_erickshaw_05 battery_erickshaw_05 fcd_erickshaw_05" vType="eRickshaw" speedFactor="0.89" vaporized="">
        <emissions CO_abs="0" CO2_abs="0" HC_abs="0" PMx_abs="0" NOx_abs="0" fuel_abs="0" electricity_abs="232.316247"/>
        <battery depleted="0" actualBatteryCapacity="29788.52" totalEnergyConsumed="313.13" totalEnergyRegenerated="80.81"/>
    </tripinfo>
    <tripinfo id="easybike_06" depart="10.00" departLane="E4_0" departPos="2.30" departPosLat="0.00" departSpeed="0.00" departDelay="0.00" arrival="1535.50" arrivalLane="E15_0" arrivalPos="750.00" arrivalPosLat="0.00" arrivalSpeed="11.84" duration="1525.50" routeLength="3549.19" waitingTime="1188.50" waitingCount="4" stopTime="0.00" timeLoss="1233.49" rerouteNo="0" devices="tripinfo_easybike_06 emissions_easybike_06 battery_easybike_06 fcd_easybike_06" vType="easyBike" speedFactor="0.88" vaporized="">
        <emissions CO_abs="0" CO2_abs="0" HC_abs="0" PMx_abs="0" NOx_abs="0" fuel_abs="0" electricity_abs="307.191691"/>
        <battery depleted="0" actualBatteryCapacity="17192.81" totalEnergyConsumed="616.77" totalEnergyRegenerated="309.57"/>
    </tripinfo>
    <tripinfo id="easybike_07" depart="12.50" departLane="E4_0" departPos="2.30" departPosLat="0.00" departSpeed="0.00" departDelay="0.50" arrival="1561.00" arrivalLane="E15_0" arrivalPos="750.00" arrivalPosLat="0.00" arrivalSpeed="15.07" duration="1548.50" routeLength="4528.94" waitingTime="1186.50" waitingCount="4" stopTime="0.00" timeLoss="1247.62" rerouteNo="0" devices="tripinfo_easybike_07 emissions_easybike_07 battery_easybike_07 fcd_easybike_07" vType="easyBike" speedFactor="1.10" vaporized="">
        <emissions CO_abs="0" CO2_abs="0" HC_abs="0" PMx_abs="0" NOx_abs="0" fuel_abs="0" electricity_abs="458.220326"/>
        <battery depleted="0" actualBatteryCapacity="17041.78" totalEnergyConsumed="904.69" totalEnergyRegenerated="446.47"/>
    </tripinfo>
    <tripinfo id="evan_03" depart="29.50" departLane="E0_0" departPos="2.60" departPosLat="0.00" departSpeed="0.00" departDelay="1.50" arrival="1608.00" arrivalLane="E15_0" arrivalPos="750.00" arrivalPosLat="0.00" arrivalSpeed="12.06" duration="1578.50" routeLength="3415.18" waitingTime="1171.50" waitingCount="6" stopTime="0.00" timeLoss="1297.19" rerouteNo="0" devices="tripinfo_evan_03 emissions_evan_03 battery_evan_03 fcd_evan_03" vType="eVan" speedFactor="0.88" vaporized="">
        <emissions CO_abs="0" CO2_abs="0" HC_abs="0" PMx_abs="0" NOx_abs="0" fuel_abs="0" electricity_abs="278.431547"/>
        <battery depleted="0" actualBatteryCapacity="29742.40" totalEnergyConsumed="431.80" totalEnergyRegenerated="153.37"/>
    </tripinfo>
    <tripinfo id="erickshaw_flow_r1.0" depart="70.00" departLane="E0_0" departPos="2.60" departPosLat="0.00" departSpeed="0.00" departDelay="0.00" arrival="1653.00" arrivalLane="E3_0" arrivalPos="1300.00" arrivalPosLat="0.00" arrivalSpeed="6.81" duration="1583.00" routeLength="3061.28" waitingTime="1060.50" waitingCount="6" stopTime="0.00" timeLoss="1141.37" rerouteNo="0" devices="tripinfo_erickshaw_flow_r1.0 emissions_erickshaw_flow_r1.0 battery_erickshaw_flow_r1.0 fcd_erickshaw_flow_r1.0" vType="eRickshaw" speedFactor="0.82" vaporized="">
        <emissions CO_abs="0" CO2_abs="0" HC_abs="0" PMx_abs="0" NOx_abs="0" fuel_abs="0" electricity_abs="238.949317"/>
        <battery depleted="0" actualBatteryCapacity="17261.05" totalEnergyConsumed="303.83" totalEnergyRegenerated="64.88"/>
    </tripinfo>
    <tripinfo id="evan_flow_r1.0" depart="85.00" departLane="E0_0" departPos="2.60" departPosLat="0.00" departSpeed="0.00" departDelay="0.00" arrival="1902.00" arrivalLane="E3_0" arrivalPos="1300.00" arrivalPosLat="0.00" arrivalSpeed="9.92" duration="1817.00" routeLength="3061.28" waitingTime="1327.50" waitingCount="7" stopTime="0.00" timeLoss="1511.31" rerouteNo="0" devices="tripinfo_evan_flow_r1.0 emissions_evan_flow_r1.0 battery_evan_flow_r1.0 fcd_evan_flow_r1.0" vType="eVan" speedFactor="0.72" vaporized="">
        <emissions CO_abs="0" CO2_abs="0" HC_abs="0" PMx_abs="0" NOx_abs="0" fuel_abs="0" electricity_abs="271.516107"/>
        <battery depleted="0" actualBatteryCapacity="17228.48" totalEnergyConsumed="359.92" totalEnergyRegenerated="88.41"/>
    </tripinfo>
    <tripinfo id="easybike_flow_r8.0" depart="64.00" departLane="E0_0" departPos="2.30" departPosLat="0.00" departSpeed="0.00" departDelay="0.00" arrival="1903.00" arrivalLane="E3_0" arrivalPos="1300.00" arrivalPosLat="0.00" arrivalSpeed="10.67" duration="1839.00" routeLength="3753.92" waitingTime="1485.50" waitingCount="7" stopTime="0.00" timeLoss="1614.16" rerouteNo="0" devices="tripinfo_easybike_flow_r8.0 emissions_easybike_flow_r8.0 battery_easybike_flow_r8.0 fcd_easybike_flow_r8.0" vType="easyBike" speedFactor="1.21" vaporized="">
        <emissions CO_abs="0" CO2_abs="0" HC_abs="0" PMx_abs="0" NOx_abs="0" fuel_abs="0" electricity_abs="323.259017"/>
        <battery depleted="0" actualBatteryCapacity="17176.74" totalEnergyConsumed="792.32" totalEnergyRegenerated="469.06"/>
    </tripinfo>
    <tripinfo id="erickshaw_03" depart="15.50" departLane="E4_0" departPos="2.60" departPosLat="0.00" departSpeed="0.00" departDelay="0.50" arrival="1925.50" arrivalLane="E15_0" arrivalPos="750.00" arrivalPosLat="0.00" arrivalSpeed="6.93" duration="1910.00" routeLength="2880.51" waitingTime="1445.00" waitingCount="5" stopTime="0.00" timeLoss="1495.28" rerouteNo="0" devices="tripinfo_erickshaw_03 emissions_erickshaw_03 battery_erickshaw_03 fcd_erickshaw_03" vType="eRickshaw" speedFactor="0.74" vaporized="">
        <emissions CO_abs="0" CO2_abs="0" HC_abs="0" PMx_abs="0" NOx_abs="0" fuel_abs="0" electricity_abs="226.773001"/>
        <battery depleted="0" actualBatteryCapacity="17273.23" totalEnergyConsumed="282.56" totalEnergyRegenerated="55.79"/>
    </tripinfo>
    <tripinfo id="easybike_flow_r5.0" depart="58.00" departLane="E0_0" departPos="2.30" departPosLat="0.00" departSpeed="0.00" departDelay="0.00" arrival="1926.50" arrivalLane="E15_0" arrivalPos="750.00" arrivalPosLat="0.00" arrivalSpeed="7.56" duration="1868.50" routeLength="3415.48" waitingTime="1472.00" waitingCount="7" stopTime="0.00" timeLoss="1603.21" rerouteNo="0" devices="tripinfo_easybike_flow_r5.0 emissions_easybike_flow_r5.0 battery_easybike_flow_r5.0 fcd_easybike_flow_r5.0" vType="easyBike" speedFactor="0.93" vaporized="">
        <emissions CO_abs="0" CO2_abs="0" HC_abs="0" PMx_abs="0" NOx_abs="0" fuel_abs="0" electricity_abs="280.633462"/>
        <battery depleted="0" actualBatteryCapacity="29740.20" totalEnergyConsumed="632.56" totalEnergyRegenerated="351.93"/>
    </tripinfo>
    <tripinfo id="easybike_flow_r1.1" depart="95.00" departLane="E0_0" departPos="2.30" departPosLat="0.00" departSpeed="0.00" departDelay="0.00" arrival="2172.50" arrivalLane="E3_0" arrivalPos="1300.00" arrivalPosLat="0.00" arrivalSpeed="13.53" duration="2077.50" routeLength="3061.58" waitingTime="1614.00" waitingCount="9" stopTime="0.00" timeLoss="1852.30" rerouteNo="0" devices="tripinfo_easybike_flow_r1.1 emissions_easybike_flow_r1.1 battery_easybike_flow_r1.1 fcd_easybike_flow_r1.1" vType="easyBike" speedFactor="0.98" vaporized="">
        <emissions CO_abs="0" CO2_abs="0" HC_abs="0" PMx_abs="0" NOx_abs="0" fuel_abs="0" electricity_abs="325.368385"/>
        <battery depleted="0" actualBatteryCapacity="17174.63" totalEnergyConsumed="526.52" totalEnergyRegenerated="201.15"/>
    </tripinfo>
    <tripinfo id="easybike_flow_r8.1" depart="167.00" departLane="E0_0" departPos="2.30" departPosLat="0.00" departSpeed="0.00" departDelay="0.14" arrival="2227.50" arrivalLane="E3_0" arrivalPos="1300.00" arrivalPosLat="0.00" arrivalSpeed="12.82" duration="2060.50" routeLength="3753.92" waitingTime="1668.50" waitingCount="11" stopTime="0.00" timeLoss="1774.87" rerouteNo="0" devices="tripinfo_easybike_flow_r8.1 emissions_easybike_flow_r8.1 battery_easybike_flow_r8.1 fcd_easybike_flow_r8.1" vType="easyBike" speedFactor="0.95" vaporized="">
        <emissions CO_abs="0" CO2_abs="0" HC_abs="0" PMx_abs="0" NOx_abs="0" fuel_abs="0" electricity_abs="307.225590"/>
        <battery depleted="0" actualBatteryCapacity="17192.77" totalEnergyConsumed="657.70" totalEnergyRegenerated="350.47"/>
    </tripinfo>
    <tripinfo id="erickshaw_flow_r5.0" depart="78.00" departLane="E0_0" departPos="2.60" departPosLat="0.00" departSpeed="0.00" departDelay="0.00" arrival="2312.50" arrivalLane="E15_0" arrivalPos="750.00" arrivalPosLat="0.00" arrivalSpeed="6.84" duration="2234.50" routeLength="3415.18" waitingTime="1642.50" waitingCount="9" stopTime="0.00" timeLoss="1742.30" rerouteNo="0" devices="tripinfo_erickshaw_flow_r5.0 emissions_erickshaw_flow_r5.0 battery_erickshaw_flow_r5.0 fcd_erickshaw_flow_r5.0" vType="eRickshaw" speedFactor="0.63" vaporized="">
        <emissions CO_abs="0" CO2_abs="0" HC_abs="0" PMx_abs="0" NOx_abs="0" fuel_abs="0" electricity_abs="268.016696"/>
        <battery depleted="0" actualBatteryCapacity="29752.82" totalEnergyConsumed="348.30" totalEnergyRegenerated="80.28"/>
    </tripinfo>
    <tripinfo id="easybike_flow_r3.0" depart="54.50" departLane="E4_0" departPos="2.30" departPosLat="0.00" departSpeed="0.00" departDelay="0.50" arrival="2369.00" arrivalLane="E15_0" arrivalPos="750.00" arrivalPosLat="0.00" arrivalSpeed="14.19" duration="2314.50" routeLength="2880.81" waitingTime="2040.50" waitingCount="10" stopTime="0.00" timeLoss="2115.30" rerouteNo="0" devices="tripinfo_easybike_flow_r3.0 emissions_easybike_flow_r3.0 battery_easybike_flow_r3.0 fcd_easybike_flow_r3.0" vType="easyBike" speedFactor="1.04" vaporized="">
        <emissions CO_abs="0" CO2_abs="0" HC_abs="0" PMx_abs="0" NOx_abs="0" fuel_abs="0" electricity_abs="317.187232"/>
        <battery depleted="0" actualBatteryCapacity="17182.81" totalEnergyConsumed="529.52" totalEnergyRegenerated="212.33"/>
    </tripinfo>
    <tripinfo id="easybike_flow_r1.2" depart="140.00" departLane="E0_0" departPos="2.30" departPosLat="0.00" departSpeed="0.00" departDelay="0.00" arrival="2472.00" arrivalLane="E3_0" arrivalPos="1300.00" arrivalPosLat="0.00" arrivalSpeed="14.37" duration="2332.00" routeLength="3061.58" waitingTime="1907.00" waitingCount="12" stopTime="0.00" timeLoss="2120.47" rerouteNo="0" devices="tripinfo_easybike_flow_r1.2 emissions_easybike_flow_r1.2 battery_easybike_flow_r1.2 fcd_easybike_flow_r1.2" vType="easyBike" speedFactor="1.04" vaporized="">
        <emissions CO_abs="0" CO2_abs="0" HC_abs="0" PMx_abs="0" NOx_abs="0" fuel_abs="0" electricity_abs="358.934326"/>
        <battery depleted="0" actualBatteryCapacity="17141.07" totalEnergyConsumed="591.01" totalEnergyRegenerated="232.07"/>
    </tripinfo>
    <tripinfo id="evan_flow_r5.0" depart="91.00" departLane="E0_0" departPos="2.60" departPosLat="0.00" departSpeed="0.00" departDelay="0.00" arrival="2521.50" arrivalLane="E15_0" arrivalPos="750.00" arrivalPosLat="0.00" arrivalSpeed="13.52" duration="2430.50" routeLength="3415.18" waitingTime="1928.00" waitingCount="10" stopTime="0.00" timeLoss="2179.41" rerouteNo="0" devices="tripinfo_evan_flow_r5.0 emissions_evan_flow_r5.0 battery_evan_flow_r5.0 fcd_evan_flow_r5.0" vType="eVan" speedFactor="0.98" vaporized="">
        <emissions CO_abs="0" CO2_abs="0" HC_abs="0" PMx_abs="0" NOx_abs="0" fuel_abs="0" electricity_abs="311.735731"/>
        <battery depleted="0" actualBatteryCapacity="29709.10" totalEnergyConsumed="471.86" totalEnergyRegenerated="160.12"/>
    </tripinfo>
    <tripinfo id="easybike_flow_r5.1" depart="113.50" departLane="E0_0" departPos="2.30" departPosLat="0.00" departSpeed="0.00" departDelay="0.12" arrival="2816.50" arrivalLane="E15_0" arrivalPos="750.00" arrivalPosLat="0.00" arrivalSpeed="14.49" duration="2703.00" routeLength="3415.48" waitingTime="2228.00" waitingCount="12" stopTime="0.00" timeLoss="2469.62" rerouteNo="0" devices="tripinfo_easybike_flow_r5.1 emissions_easybike_flow_r5.1 battery_easybike_flow_r5.1 fcd_easybike_flow_r5.1" vType="easyBike" speedFactor="1.06" vaporized="">
        <emissions CO_abs="0" CO2_abs="0" HC_abs="0" PMx_abs="0" NOx_abs="0" fuel_abs="0" electricity_abs="350.869867"/>
        <battery depleted="0" actualBatteryCapacity="29669.96" totalEnergyConsumed="674.80" totalEnergyRegenerated="323.94"/>
    </tripinfo>
    <tripinfo id="erickshaw_flow_r1.1" depart="173.00" departLane="E0_0" departPos="2.60" departPosLat="0.00" departSpeed="0.00" departDelay="0.14" arrival="2880.50" arrivalLane="E3_0" arrivalPos="1300.00" arrivalPosLat="0.00" arrivalSpeed="6.77" duration="2707.50" routeLength="3061.28" waitingTime="2110.00" waitingCount="12" stopTime="0.00" timeLoss="2265.87" rerouteNo="0" devices="tripinfo_erickshaw_flow_r1.1 emissions_erickshaw_flow_r1.1 battery_erickshaw_flow_r1.1 fcd_erickshaw_flow_r1.1" vType="eRickshaw" speedFactor="0.76" vaporized="">
        <emissions CO_abs="0" CO2_abs="0" HC_abs="0" PMx_abs="0" NOx_abs="0" fuel_abs="0" electricity_abs="270.800280"/>
        <battery depleted="0" actualBatteryCapacity="17229.20" totalEnergyConsumed="343.45" totalEnergyRegenerated="72.65"/>
    </tripinfo>
    <tripinfo id="easybike_flow_r1.3" depart="185.00" departLane="E0_0" departPos="2.30" departPosLat="0.00" departSpeed="0.00" departDelay="0.00" arrival="2882.00" arrivalLane="E3_0" arrivalPos="1300.00" arrivalPosLat="0.00" arrivalSpeed="8.04" duration="2697.00" routeLength="3061.58" waitingTime="2107.00" waitingCount="14" stopTime="0.00" timeLoss="2503.45" rerouteNo="0" devices="tripinfo_easybike_flow_r1.3 emissions_easybike_flow_r1.3 battery_easybike_flow_r1.3 fcd_easybike_flow_r1.3" vType="easyBike" speedFactor="1.14" vaporized="">
        <emissions CO_abs="0" CO2_abs="0" HC_abs="0" PMx_abs="0" NOx_abs="0" fuel_abs="0" electricity_abs="287.790473"/>
        <battery depleted="0" actualBatteryCapacity="17212.21" totalEnergyConsumed="528.09" totalEnergyRegenerated="240.30"/>
    </tripinfo>
    <tripinfo id="easybike_flow_r2.0" depart="52.00" departLane="E4_0" departPos="2.30" departPosLat="0.00" departSpeed="0.00" departDelay="0.00" arrival="2883.00" arrivalLane="E3_0" arrivalPos="1300.00" arrivalPosLat="0.00" arrivalSpeed="8.14" duration="2831.00" routeLength="3449.11" waitingTime="2367.50" waitingCount="12" stopTime="0.00" timeLoss="2617.04" rerouteNo="0" devices="tripinfo_easybike_flow_r2.0 emissions_easybike_flow_r2.0 battery_easybike_flow_r2.0 fcd_easybike_flow_r2.0" vType="easyBike" speedFactor="1.17" vaporized="">
        <emissions CO_abs="0" CO2_abs="0" HC_abs="0" PMx_abs="0" NOx_abs="0" fuel_abs="0" electricity_abs="372.764233"/>
        <battery depleted="0" actualBatteryCapacity="17127.24" totalEnergyConsumed="748.95" totalEnergyRegenerated="376.19"/>
    </tripinfo>
    <tripinfo id="easybike_04" depart="7.00" departLane="E4_0" departPos="2.30" departPosLat="0.00" departSpeed="0.00" departDelay="1.00" arrival="2884.50" arrivalLane="E3_0" arrivalPos="1300.00" arrivalPosLat="0.00" arrivalSpeed="8.73" duration="2877.50" routeLength="4667.61" waitingTime="2329.00" waitingCount="10" stopTime="0.00" timeLoss="2578.41" rerouteNo="0" devices="tripinfo_easybike_04 emissions_easybike_04 battery_easybike_04 fcd_easybike_04" vType="easyBike" speedFactor="1.13" vaporized="">
        <emissions CO_abs="0" CO2_abs="0" HC_abs="0" PMx_abs="0" NOx_abs="0" fuel_abs="0" electricity_abs="439.939782"/>
        <battery depleted="0" actualBatteryCapacity="17060.06" totalEnergyConsumed="1032.53" totalEnergyRegenerated="592.59"/>
    </tripinfo>
    <tripinfo id="erickshaw_04" depart="20.00" departLane="E4_0" departPos="2.60" departPosLat="0.00" departSpeed="0.00" departDelay="0.00" arrival="2890.50" arrivalLane="E3_0" arrivalPos="1300.00" arrivalPosLat="0.00" arrivalSpeed="6.82" duration="2870.50" routeLength="4667.31" waitingTime="2077.50" waitingCount="10" stopTime="0.00" timeLoss="2194.65" rerouteNo="0" devices="tripinfo_erickshaw_04 emissions_erickshaw_04 battery_erickshaw_04 fcd_erickshaw_04" vType="eRickshaw" speedFactor="0.66" vaporized="">
        <emissions CO_abs="0" CO2_abs="0" HC_abs="0" PMx_abs="0" NOx_abs="0" fuel_abs="0" electricity_abs="363.063032"/>
        <battery depleted="0" actualBatteryCapacity="17136.94" totalEnergyConsumed="491.98" totalEnergyRegenerated="128.91"/>
    </tripinfo>
    <tripinfo id="erickshaw_flow_r2.0" depart="72.00" departLane="E4_0" departPos="2.60" departPosLat="0.00" departSpeed="0.00" departDelay="0.00" arrival="2936.50" arrivalLane="E3_0" arrivalPos="1300.00" arrivalPosLat="0.00" arrivalSpeed="6.91" duration="2864.50" routeLength="3448.81" waitingTime="2260.00" waitingCount="9" stopTime="0.00" timeLoss="2366.09" rerouteNo="0" devices="tripinfo_erickshaw_flow_r2.0 emissions_erickshaw_flow_r2.0 battery_erickshaw_flow_r2.0 fcd_erickshaw_flow_r2.0" vType="eRickshaw" speedFactor="0.81" vaporized="">
        <emissions CO_abs="0" CO2_abs="0" HC_abs="0" PMx_abs="0" NOx_abs="0" fuel_abs="0" electricity_abs="300.641883"/>
        <battery depleted="0" actualBatteryCapacity="17199.36" totalEnergyConsumed="377.56" totalEnergyRegenerated="76.92"/>
    </tripinfo>
    <tripinfo id="easybike_flow_r6.0" depart="60.50" departLane="E4_0" departPos="2.30" departPosLat="0.00" departSpeed="0.00" departDelay="0.50" arrival="3025.50" arrivalLane="E15_0" arrivalPos="750.00" arrivalPosLat="0.00" arrivalSpeed="13.63" duration="2965.00" routeLength="3549.19" waitingTime="2619.50" waitingCount="10" stopTime="0.00" timeLoss="2705.23" rerouteNo="0" devices="tripinfo_easybike_flow_r6.0 emissions_easybike_flow_r6.0 battery_easybike_flow_r6.0 fcd_easybike_flow_r6.0" vType="easyBike" speedFactor="0.99" vaporized="">
        <emissions CO_abs="0" CO2_abs="0" HC_abs="0" PMx_abs="0" NOx_abs="0" fuel_abs="0" electricity_abs="334.037891"/>
        <battery depleted="0" actualBatteryCapacity="17165.96" totalEnergyConsumed="681.74" totalEnergyRegenerated="347.70"/>
    </tripinfo>
    <tripinfo id="easybike_flow_r4.0" depart="57.50" departLane="E4_0" departPos="2.30" departPosLat="0.00" departSpeed="0.00" departDelay="1.50" arrival="3110.50" arrivalLane="E3_0" arrivalPos="1300.00" arrivalPosLat="0.00" arrivalSpeed="13.29" duration="3053.00" routeLength="4667.61" waitingTime="2576.00" waitingCount="12" stopTime="0.00" timeLoss="2705.81" rerouteNo="0" devices="tripinfo_easybike_flow_r4.0 emissions_easybike_flow_r4.0 battery_easybike_flow_r4.0 fcd_easybike_flow_r4.0" vType="easyBike" speedFactor="0.98" vaporized="">
        <emissions CO_abs="0" CO2_abs="0" HC_abs="0" PMx_abs="0" NOx_abs="0" fuel_abs="0" electricity_abs="470.764708"/>
        <battery depleted="0" actualBatteryCapacity="17029.24" totalEnergyConsumed="973.63" totalEnergyRegenerated="502.87"/>
    </tripinfo>
    <tripinfo id="easybike_flow_r7.0" depart="63.00" departLane="E4_0" departPos="2.30" departPosLat="0.00" departSpeed="0.00" departDelay="1.00" arrival="3125.00" arrivalLane="E15_0" arrivalPos="750.00" arrivalPosLat="0.00" arrivalSpeed="13.23" duration="3062.00" routeLength="4528.94" waitingTime="2622.50" waitingCount="10" stopTime="0.00" timeLoss="2729.00" rerouteNo="0" devices="tripinfo_easybike_flow_r7.0 emissions_easybike_flow_r7.0 battery_easybike_flow_r7.0 fcd_easybike_flow_r7.0" vType="easyBike" speedFactor="0.99" vaporized="">
        <emissions CO_abs="0" CO2_abs="0" HC_abs="0" PMx_abs="0" NOx_abs="0" fuel_abs="0" electricity_abs="461.249454"/>
        <battery depleted="0" actualBatteryCapacity="17038.75" totalEnergyConsumed="862.41" totalEnergyRegenerated="401.16"/>
    </tripinfo>
    <tripinfo id="easybike_flow_r5.2" depart="169.50" departLane="E0_0" departPos="2.30" departPosLat="0.00" departSpeed="0.00" departDelay="0.73" arrival="3126.00" arrivalLane="E15_0" arrivalPos="750.00" arrivalPosLat="0.00" arrivalSpeed="13.85" duration="2956.50" routeLength="3415.48" waitingTime="2574.50" waitingCount="14" stopTime="0.00" timeLoss="2728.49" rerouteNo="0" devices="tripinfo_easybike_flow_r5.2 emissions_easybike_flow_r5.2 battery_easybike_flow_r5.2 fcd_easybike_flow_r5.2" vType="easyBike" speedFactor="1.08" vaporized="">
        <emissions CO_abs="0" CO2_abs="0" HC_abs="0" PMx_abs="0" NOx_abs="0" fuel_abs="0" electricity_abs="403.851686"/>
        <battery depleted="0" actualBatteryCapacity="29616.98" totalEnergyConsumed="756.23" totalEnergyRegenerated="352.37"/>
    </tripinfo>
    <tripinfo id="evan_flow_r2.0" depart="87.00" departLane="E4_0" departPos="2.60" departPosLat="0.00" departSpeed="0.00" departDelay="0.00" arrival="3440.50" arrivalLane="E3_0" arrivalPos="1300.00" arrivalPosLat="0.00" arrivalSpeed="10.47" duration="3353.50" routeLength="3448.81" waitingTime="2843.50" waitingCount="13" stopTime="0.00" timeLoss="3027.27" rerouteNo="0" devices="tripinfo_evan_flow_r2.0 emissions_evan_flow_r2.0 battery_evan_flow_r2.0 fcd_evan_flow_r2.0" vType="eVan" speedFactor="0.77" vaporized="">
        <emissions CO_abs="0" CO2_abs="0" HC_abs="0" PMx_abs="0" NOx_abs="0" fuel_abs="0" electricity_abs="360.952184"/>
        <battery depleted="0" actualBatteryCapacity="17139.05" totalEnergyConsumed="495.70" totalEnergyRegenerated="134.75"/>
    </tripinfo>
    <tripinfo id="erickshaw_flow_r3.0" depart="76.00" departLane="E4_0" departPos="2.60" departPosLat="0.00" departSpeed="0.00" departDelay="2.00" arrival="3454.50" arrivalLane="E15_0" arrivalPos="750.00" arrivalPosLat="0.00" arrivalSpeed="6.86" duration="3378.50" routeLength="2880.51" waitingTime="2846.00" waitingCount="12" stopTime="0.00" timeLoss="2963.80" rerouteNo="0" devices="tripinfo_erickshaw_flow_r3.0 emissions_erickshaw_flow_r3.0 battery_erickshaw_flow_r3.0 fcd_erickshaw_flow_r3.0" vType="eRickshaw" speedFactor="0.78" vaporized="">
        <emissions CO_abs="0" CO2_abs="0" HC_abs="0" PMx_abs="0" NOx_abs="0" fuel_abs="0" electricity_abs="268.064329"/>
        <battery depleted="0" actualBatteryCapacity="17231.94" totalEnergyConsumed="326.71" totalEnergyRegenerated="58.65"/>
    </tripinfo>
    <tripinfo id="evan_flow_r3.0" depart="91.50" departLane="E4_0" departPos="2.60" departPosLat="0.00" departSpeed="0.00" departDelay="2.50" arrival="3943.00" arrivalLane="E15_0" arrivalPos="750.00" arrivalPosLat="0.00" arrivalSpeed="11.08" duration="3851.50" routeLength="2880.51" waitingTime="3408.00" waitingCount="16" stopTime="0.00" timeLoss="3592.28" rerouteNo="0" devices="tripinfo_evan_flow_r3.0 emissions_evan_flow_r3.0 battery_evan_flow_r3.0 fcd_evan_flow_r3.0" vType="eVan" speedFactor="0.80" vaporized="">
        <emissions CO_abs="0" CO2_abs="0" HC_abs="0" PMx_abs="0" NOx_abs="0" fuel_abs="0" electricity_abs="293.565981"/>
        <battery depleted="0" actualBatteryCapacity="17206.43" totalEnergyConsumed="383.50" totalEnergyRegenerated="89.93"/>
    </tripinfo>
    <tripinfo id="erickshaw_flow_r4.0" depart="80.50" departLane="E4_0" departPos="2.60" departPosLat="0.00" departSpeed="0.00" departDelay="4.50" arrival="4073.00" arrivalLane="E3_0" arrivalPos="1300.00" arrivalPosLat="0.00" arrivalSpeed="6.89" duration="3992.50" routeLength="4667.31" waitingTime="3146.50" waitingCount="15" stopTime="0.00" timeLoss="3316.90" rerouteNo="0" devices="tripinfo_erickshaw_flow_r4.0 emissions_erickshaw_flow_r4.0 battery_erickshaw_flow_r4.0 fcd_erickshaw_flow_r4.0" vType="eRickshaw" speedFactor="0.69" vaporized="">